<?xml version="1.0"?>
<VTKFile type="RectilinearGrid" version="0.1" byte_order="LittleEndian">
  <RectilinearGrid WholeExtent="0 47 0 47 0 47">
    <Piece Extent="0 47 0 47 0 47">
      <PointData Scalars="concentration">
        <DataArray type="Float32" Name="concentration" NumberOfComponents="1" format="ascii">
          -6.586175e-06 3.437571e-05 4.821405e-05 2.869946e-05 1.088210e-05 -1.497088e-05
          3.219737e-05 -8.271246e-06 -4.480224e-06 -1.449880e-05 2.787682e-06 5.951568e-06
          5.821267e-05 1.115176e-04 6.477570e-05 4.008388e-06 5.941083e-05 3.332434e-05
          2.514374e-05 3.078602e-05 1.564301e-05 1.108699e-04 9.483405e-05 9.058801e-05
          8.467947e-05 -1.024799e-05 -3.500584e-06 7.949825e-06 2.765299e-05 5.091850e-05
          3.988057e-05 3.494660e-05 2.880724e-05 3.783631e-05 5.820008e-05 7.928186e-05
          9.430347e-05 1.454505e-04 1.638081e-04 -5.368235e-05 3.533698e-05 3.655682e-05
          1.368213e-05 2.366957e-05 2.832241e-05 1.740337e-05 3.871677e-06 -3.760244e-05
          -5.619771e-05 -1.594917e-05 -9.740225e-06 -2.800958e-05 -4.003137e-05 -5.213283e-05
          1.068876e-04 2.312920e-04 3.083469e-04 3.624335e-04 3.910775e-04 3.949121e-04
          4.559634e-04 5.170589e-04 4.575317e-04 3.669777e-04 2.733878e-04 1.015483e-04
          8.117628e-05 9.099483e-05 1.515469e-04 5.086029e-04 5.086135e-04 5.044818e-04
          4.844973e-04 1.033079e-04 6.316068e-05 7.326085e-05 9.780636e-05 1.444898e-04
          2.931154e-04 4.203060e-04 4.200149e-04 4.302401e-04 4.451494e-04 4.450196e-04
          4.385334e-04 4.886608e-04 4.790634e-04 1.922090e-04 2.906318e-04 3.819911e-04
          3.958492e-04 4.155413e-04 4.225147e-04 4.116584e-04 3.969810e-04 3.357887e-04
          -9.673261e-05 1.313641e-04 2.002216e-04 8.812745e-05 -1.225639e-05 -1.564960e-04
          2.396367e-04 2.714620e-04 4.092760e-04 4.493306e-04 5.635648e-04 5.419812e-04
          6.114715e-04 7.675880e-04 4.711192e-04 1.056773e-04 4.078627e-04 2.627874e-04
          2.200580e-04 2.567961e-04 1.940829e-04 7.476062e-04 6.468421e-04 6.222946e-04
          5.875666e-04 2.729952e-05 5.593697e-05 1.175900e-04 2.275742e-04 3.560157e-04
          3.093109e-04 2.887116e-04 2.518358e-04 3.045129e-04 4.214608e-04 5.314196e-04
          6.016847e-04 8.956674e-04 1.010069e-03 -1.504423e-04 5.681680e-04 7.257191e-04
          6.342570e-04 6.971117e-04 7.208576e-04 6.561023e-04 5.757774e-04 3.048288e-04
          8.926635e-06 -1.555163e-04 -2.201364e-04 -1.371494e-04 -5.400049e-05 7.522694e-05
          4.469725e-06 2.857243e-04 3.372122e-04 4.458030e-04 3.887032e-04 4.057125e-04
          3.763054e-04 2.833609e-04 4.702157e-04 6.704500e-04 1.291458e-04 -8.660600e-05
          -8.308820e-05 -1.006294e-04 1.071167e-04 2.800188e-04 3.866809e-04 4.043695e-04
          3.985857e-04 1.765936e-04 5.482048e-05 8.289107e-06 -5.964812e-05 -9.989923e-05
          2.809525e-04 5.842095e-04 6.238528e-04 5.888571e-04 4.942411e-04 3.726345e-04
          2.779755e-04 6.353699e-05 -8.095803e-05 5.968130e-04 1.066262e-04 1.852255e-04
          3.265387e-04 3.016963e-04 2.896045e-04 3.360615e-04 3.910497e-04 5.415430e-04
          -2.772003e-06 1.555319e-04 2.087988e-04 1.291384e-04 5.291693e-05 -6.292707e-05
          1.218325e-04 2.607928e-05 8.065589e-05 7.511889e-05 1.485796e-04 1.204200e-04
          8.887805e-05 1.448282e-04 -5.702889e-05 -2.862113e-04 6.475906e-05 1.051719e-04
          8.810739e-05 1.107436e-04 -5.814057e-07 1.328374e-04 4.374622e-05 2.629145e-05
          1.550295e-05 -1.021006e-04 -3.885373e-05 4.694212e-06 7.596289e-05 1.419985e-04
          -4.120812e-05 -1.812639e-04 -2.129261e-04 -1.768727e-04 -8.908935e-05 7.400324e-06
          7.429261e-05 2.796534e-04 3.884902e-04 -3.291921e-04 2.320299e-04 2.981553e-04
          2.078092e-04 2.432922e-04 2.566824e-04 2.106924e-04 1.548545e-04 -2.616528e-05
          2.840431e-05 1.884977e-04 2.489814e-04 1.676208e-04 8.591370e-05 -4.212165e-05
          4.812192e-05 -1.879702e-04 -2.000890e-04 -2.662098e-04 -2.030677e-04 -2.311344e-04
          -2.660365e-04 -2.139846e-04 -4.055661e-04 -6.095401e-04 -1.185748e-04 5.697531e-05
          5.113189e-05 7.001098e-05 -1.115710e-04 -2.182921e-04 -3.223909e-04 -3.400148e-04
          -3.378988e-04 -1.923650e-04 -8.554171e-05 -4.051514e-05 2.669044e-05 7.150418e-05
          -2.602752e-04 -5.233695e-04 -5.607859e-04 -5.256081e-04 -4.325859e-04 -3.167902e-04
          -2.301160e-04 -2.188871e-05 1.138002e-04 -5.460644e-04 4.048090e-06 -1.428252e-05
          -1.386296e-04 -1.116464e-04 -1.001673e-04 -1.464275e-04 -2.015075e-04 -3.646073e-04
          6.171865e-05 -1.550476e-04 -2.239916e-04 -1.164182e-04 -1.737594e-05 1.286319e-04
          -1.935581e-04 -1.517330e-04 -2.536422e-04 -2.666252e-04 -3.708266e-04 -3.441194e-04
          -3.722022e-04 -4.950180e-04 -2.165660e-04 1.156744e-04 -2.605314e-04 -2.107656e-04
          -1.778475e-04 -2.111014e-04 -1.083000e-04 -4.782825e-04 -3.711225e-04 -3.476023e-04
          -3.229216e-04 3.991972e-05 -1.445528e-05 -7.344964e-05 -1.751257e-04 -2.827142e-04
          -1.438720e-04 -4.540918e-05 -6.665473e-06 -5.616379e-05 -1.712648e-04 -2.880254e-04
          -3.662389e-04 -6.468103e-04 -7.737248e-04 2.784201e-04 -4.316302e-04 -5.479382e-04
          -4.435412e-04 -4.981768e-04 -5.189035e-04 -4.567427e-04 -3.804591e-04 -1.292599e-04
          -1.149772e-04 2.140893e-04 3.294046e-04 1.658287e-04 1.094920e-05 -2.196321e-04
          1.342869e-04 -1.282199e-04 -9.904169e-05 -2.007200e-04 -6.562005e-05 -9.148576e-05
          2.438225e-05 2.518300e-04 -1.440222e-04 -6.035004e-04 1.754630e-04 3.064982e-04
          2.737879e-04 3.165411e-04 5.310036e-05 2.452103e-04 6.636896e-05 3.124035e-05
          1.393223e-05 -1.288818e-04 1.990158e-05 1.110619e-04 2.573259e-04 3.870011e-04
          -4.926554e-05 -3.854091e-04 -4.526083e-04 -3.800649e-04 -2.021834e-04 -1.031560e-06
          1.465462e-04 5.738175e-04 8.041330e-04 -7.099702e-04 2.547924e-04 2.581302e-04
          4.448921e-05 1.133845e-04 1.429442e-04 5.054211e-05 -6.139139e-05 -3.975636e-04
          -7.707384e-05 -1.001527e-04 -1.103282e-04 -9.712758e-05 -8.101889e-05 -5.112410e-05
          -2.467798e-05 5.697903e-05 5.456305e-05 5.300657e-05 4.125234e-05 6.139926e-05
          1.583455e-04 2.087025e-04 2.412831e-04 2.638928e-04 1.411389e-04 6.408766e-05
          6.002892e-05 5.718517e-05 1.063846e-04 2.140512e-04 2.402057e-04 2.433258e-04
          2.382972e-04 1.203495e-04 8.959963e-05 8.293270e-05 7.474970e-05 7.678455e-05
          1.789453e-04 2.624780e-04 2.701188e-04 2.646644e-04 2.463490e-04 2.195209e-04
          2.004905e-04 1.701867e-04 1.383475e-04 1.865432e-04 1.562716e-05 -8.394396e-07
          2.273042e-05 2.138292e-05 2.179227e-05 3.004593e-05 3.938582e-05 7.192601e-05
          -9.291277e-05 -5.834056e-05 -5.116136e-05 -6.614142e-05 -7.541598e-05 -8.219763e-05
          4.164218e-05 1.246686e-04 1.573202e-04 1.674909e-04 1.849763e-04 2.000611e-04
          3.171963e-04 4.089190e-04 3.668305e-04 2.967493e-04 2.435881e-04 1.227536e-04
          1.071983e-04 1.138014e-04 1.498611e-04 4.088807e-04 4.102879e-04 4.072236e-04
          3.927645e-04 1.206506e-04 9.519223e-05 1.041739e-04 1.241309e-04 1.597601e-04
          2.572410e-04 3.416855e-04 3.404648e-04 3.483026e-04 3.595140e-04 3.602861e-04
          3.586788e-04 4.021493e-04 3.974269e-04 1.484095e-04 1.583539e-04 1.833487e-04
          1.843441e-04 1.990901e-04 2.055186e-04 1.973977e-04 1.863997e-04 1.498343e-04
          -6.813476e-05 -3.107599e-05 -2.367586e-05 -3.964065e-05 -5.013505e-05 -5.936190e-05
          6.630411e-05 1.411122e-04 1.823624e-04 2.033969e-04 2.242428e-04 2.380187e-04
          3.510141e-04 4.422273e-04 3.958782e-04 3.194480e-04 2.479407e-04 1.033983e-04
          8.536071e-05 9.301146e-05 1.381654e-04 4.399123e-04 4.418387e-04 4.384656e-04
          4.215597e-04 1.025468e-04 7.098585e-05 8.072604e-05 1.028055e-04 1.434239e-04
          2.633203e-04 3.670201e-04 3.666077e-04 3.751817e-04 3.877352e-04 3.888157e-04
          3.862664e-04 4.316316e-04 4.232259e-04 1.526600e-04 1.811449e-04 2.216245e-04
          2.251079e-04 2.414558e-04 2.481626e-04 2.391673e-04 2.269781e-04 1.831822e-04
          2.829698e-05 2.924990e-05 2.946893e-05 3.070116e-05 3.193114e-05 3.434453e-05
          2.225648e-05 -2.216787e-05 -3.231186e-05 -3.569528e-05 -3.579739e-05 -2.413780e-05
          4.488864e-05 9.050547e-05 9.607950e-05 9.276303e-05 3.604488e-05 -2.458349e-05
          -3.080159e-05 -3.045963e-05 -8.276512e-06 9.167129e-05 1.006554e-04 1.009183e-04
          9.549982e-05 -1.199011e-05 -2.784103e-05 -2.706494e-05 -2.432449e-05 -1.392681e-05
          4.556979e-05 9.701738e-05 1.004580e-04 1.003249e-04 9.835632e-05 9.460021e-05
          9.174785e-05 8.880525e-05 7.335922e-05 2.476355e-05 -3.076713e-05 -4.116674e-05
          -3.971667e-05 -3.809660e-05 -3.683732e-05 -3.610287e-05 -3.554771e-05 -3.328700e-05
          1.152967e-04 9.874197e-05 9.751613e-05 1.066346e-04 1.112375e-04 1.130802e-04
          -4.636263e-06 -1.641246e-04 -2.143456e-04 -2.392757e-04 -2.510770e-04 -2.442501e-04
          -2.191116e-04 -2.100067e-04 -1.771192e-04 -1.367543e-04 -1.477544e-04 -1.299874e-04
          -1.272837e-04 -1.313090e-04 -1.398285e-04 -2.070205e-04 -2.001273e-04 -1.982895e-04
          -1.944630e-04 -1.248119e-04 -1.208125e-04 -1.240235e-04 -1.318425e-04 -1.421832e-04
          -1.533680e-04 -1.613774e-04 -1.574402e-04 -1.619767e-04 -1.686337e-04 -1.676530e-04
          -1.645645e-04 -1.914700e-04 -2.030839e-04 -1.203218e-04 -1.964792e-04 -2.449504e-04
          -2.535616e-04 -2.617812e-04 -2.641338e-04 -2.590318e-04 -2.523575e-04 -2.262605e-04
          9.070501e-05 1.422108e-04 1.637519e-04 1.390665e-04 1.122645e-04 6.764616e-05
          3.823311e-05 -1.534815e-04 -1.851552e-04 -2.193364e-04 -2.009610e-04 -2.005175e-04
          -1.561033e-04 -1.024045e-04 -1.539968e-04 -2.134778e-04 -8.530527e-05 -6.234197e-05
          -6.826506e-05 -6.264720e-05 -1.143750e-04 -1.025048e-04 -1.307157e-04 -1.362003e-04
          -1.380705e-04 -1.412224e-04 -1.134255e-04 -9.798370e-05 -7.467547e-05 -5.460037e-05
          -1.321543e-04 -1.899613e-04 -1.990301e-04 -1.883215e-04 -1.586122e-04 -1.186986e-04
          -8.815302e-05 -2.674585e-05 5.252982e-06 -2.349221e-04 -1.027615e-04 -1.337689e-04
          -1.808964e-04 -1.734005e-04 -1.693581e-04 -1.835379e-04 -2.003865e-04 -2.480858e-04
          3.970856e-05 -3.109889e-05 -5.526705e-05 -1.795226e-05 1.789625e-05 7.241626e-05
          -2.217716e-05 -2.301048e-05 -5.301057e-05 -4.789393e-05 -8.008082e-05 -5.657101e-05
          2.249845e-05 4.053764e-05 1.365963e-04 2.353526e-04 9.224707e-06 -8.046228e-05
          -7.992343e-05 -8.946129e-05 -1.183343e-05 4.601034e-05 9.602356e-05 1.040933e-04
          1.026013e-04 2.792943e-05 -1.970067e-05 -3.873653e-05 -6.776676e-05 -8.544971e-05
          6.831824e-05 1.926565e-04 2.109887e-04 1.946456e-04 1.529950e-04 1.049962e-04
          7.084426e-05 -2.552841e-05 -9.249422e-05 1.796707e-04 -1.227837e-04 -1.548318e-04
          -1.103699e-04 -1.243455e-04 -1.290406e-04 -1.076094e-04 -8.200946e-05 -2.475389e-07
          -3.062520e-05 6.809808e-05 1.006648e-04 5.370913e-05 1.117551e-05 -4.982383e-05
          7.746802e-05 2.269899e-06 1.748946e-05 -2.796699e-06 3.965360e-05 4.683722e-05
          1.707073e-04 2.974196e-04 1.829120e-04 3.390379e-05 1.632464e-04 9.592118e-05
          7.592995e-05 9.016758e-05 5.645350e-05 2.956396e-04 2.572999e-04 2.471808e-04
          2.323047e-04 -6.590514e-06 7.570721e-06 3.501086e-05 8.301889e-05 1.394806e-04
          1.184685e-04 1.107264e-04 9.609737e-05 1.177132e-04 1.666628e-04 2.159690e-04
          2.507317e-04 3.748415e-04 4.187486e-04 -1.078232e-04 1.091211e-04 1.177851e-04
          6.547038e-05 9.040810e-05 1.014748e-04 7.491693e-05 4.200161e-05 -5.905944e-05
          2.971976e-05 -2.884665e-05 -4.958074e-05 -1.856306e-05 1.161436e-05 5.809777e-05
          -1.014298e-05 3.109904e-06 -1.498153e-05 -4.549482e-06 -3.004756e-05 -1.024261e-05
          5.778898e-05 7.465680e-05 1.530942e-04 2.319511e-04 2.862978e-05 -6.150064e-05
          -6.244601e-05 -6.990308e-05 2.278181e-06 7.843843e-05 1.216069e-04 1.283546e-04
          1.255598e-04 3.291500e-05 -1.150945e-05 -2.732690e-05 -5.089401e-05 -6.294633e-05
          8.154103e-05 1.988103e-04 2.146419e-04 2.012461e-04 1.661882e-04 1.243364e-04
          9.392321e-05 1.393694e-05 -4.463819e-05 1.725617e-04 -7.817493e-05 -9.621597e-05
          -5.584321e-05 -6.636006e-05 -7.001667e-05 -5.224807e-05 -3.113603e-05 3.461349e-05
          3.734004e-05 -1.167894e-05 -2.481593e-05 9.151858e-07 2.353762e-05 5.673565e-05
          -6.143656e-05 -1.399551e-04 -2.017622e-04 -2.357312e-04 -2.650518e-04 -2.457724e-04
          -1.773086e-04 -1.577457e-04 -8.262590e-05 1.674995e-06 -8.444998e-05 -7.641323e-05
          -7.017643e-05 -7.919138e-05 -6.209361e-05 -1.486166e-04 -1.202689e-04 -1.144368e-04
          -1.087124e-04 -2.120088e-05 -3.171400e-05 -4.421536e-05 -6.713378e-05 -9.093268e-05
          -6.105952e-05 -3.822675e-05 -2.828286e-05 -4.042336e-05 -6.767888e-05 -9.186577e-05
          -1.053764e-04 -1.722443e-04 -2.059039e-04 1.435585e-05 -2.212695e-04 -2.972146e-04
          -2.849919e-04 -2.994180e-04 -3.036790e-04 -2.883534e-04 -2.694700e-04 -1.994460e-04
          -9.861019e-06 2.486275e-04 3.443823e-04 2.162213e-04 9.077368e-05 -1.003485e-04
          7.987148e-05 -2.850616e-04 -3.170100e-04 -4.373608e-04 -3.383531e-04 -3.551740e-04
          -2.464996e-04 -5.713363e-05 -3.553693e-04 -6.951679e-04 -1.650316e-05 1.505413e-04
          1.296597e-04 1.607073e-04 -8.493254e-05 -5.786499e-05 -2.047804e-04 -2.321988e-04
          -2.393103e-04 -2.161746e-04 -7.670344e-05 -3.818180e-06 1.089175e-04 2.002704e-04
          -2.161548e-04 -5.397385e-04 -5.940974e-04 -5.381873e-04 -3.955046e-04 -2.240065e-04
          -9.466834e-05 2.376232e-04 4.277902e-04 -7.327712e-04 1.692833e-06 -5.665411e-05
          -2.483815e-04 -2.003400e-04 -1.785450e-04 -2.507540e-04 -3.375045e-04 -5.885625e-04
          6.718499e-05 -6.339589e-05 -1.013992e-04 -3.541489e-05 2.346663e-05 1.092887e-04
          -1.464720e-04 -2.315421e-04 -3.418392e-04 -3.898093e-04 -4.599771e-04 -4.316882e-04
          -3.807827e-04 -4.123639e-04 -2.309743e-04 -1.690085e-05 -2.182236e-04 -1.653102e-04
          -1.444196e-04 -1.665584e-04 -1.237389e-04 -3.959120e-04 -3.303255e-04 -3.156697e-04
          -2.981811e-04 -2.350756e-05 -4.637450e-05 -8.090840e-05 -1.429699e-04 -2.115539e-04
          -1.575861e-04 -1.211434e-04 -9.771578e-05 -1.286895e-04 -1.982421e-04 -2.628695e-04
          -3.023628e-04 -4.744988e-04 -5.506377e-04 7.969629e-05 -4.197781e-04 -5.519426e-04
          -5.059898e-04 -5.425465e-04 -5.551066e-04 -5.164827e-04 -4.687608e-04 -3.015370e-04
          5.784665e-05 3.144901e-05 3.396894e-05 4.724026e-05 5.341864e-05 5.744955e-05
          -1.469579e-04 -3.979431e-04 -5.355569e-04 -6.482214e-04 -6.814555e-04 -6.655468e-04
          -6.054910e-04 -5.841998e-04 -5.228335e-04 -4.369339e-04 -2.955901e-04 -1.059790e-04
          -8.717667e-05 -9.801763e-05 -1.857774e-04 -5.663170e-04 -5.687348e-04 -5.653712e-04
          -5.442824e-04 -1.305323e-04 -7.667691e-05 -8.180139e-05 -1.007396e-04 -1.438640e-04
          -3.305541e-04 -4.859143e-04 -4.877524e-04 -4.964413e-04 -5.059220e-04 -4.939144e-04
          -4.740350e-04 -5.098417e-04 -4.938589e-04 -2.909435e-04 -4.703403e-04 -6.456498e-04
          -6.876437e-04 -7.082004e-04 -7.131790e-04 -7.041630e-04 -6.914430e-04 -6.213081e-04
          5.189232e-05 8.948636e-05 1.169946e-04 9.785468e-05 7.155562e-05 2.508793e-05
          -1.491444e-04 -5.035410e-04 -6.589370e-04 -8.124080e-04 -8.231482e-04 -8.150653e-04
          -7.508019e-04 -6.980199e-04 -7.103059e-04 -7.026336e-04 -3.470297e-04 -6.970280e-05
          -5.185481e-05 -5.582360e-05 -2.255484e-04 -6.791303e-04 -7.237717e-04 -7.273599e-04
          -7.037066e-04 -1.974613e-04 -9.536072e-05 -8.241624e-05 -7.497142e-05 -1.030720e-04
          -4.415594e-04 -7.180834e-04 -7.356075e-04 -7.306443e-04 -7.030692e-04 -6.435626e-04
          -5.867924e-04 -5.387419e-04 -4.653598e-04 -5.229396e-04 -5.048534e-04 -7.080350e-04
          -8.046887e-04 -8.156140e-04 -8.160044e-04 -8.251932e-04 -8.339811e-04 -8.231849e-04
          9.481877e-05 -1.926925e-04 -2.807335e-04 -1.373092e-04 -6.949039e-06 1.842352e-04
          -2.972073e-04 -3.338059e-04 -5.154521e-04 -5.737580e-04 -7.194960e-04 -6.744875e-04
          -6.598656e-04 -7.911818e-04 -4.102692e-04 4.428186e-05 -4.101548e-04 -3.020219e-04
          -2.554488e-04 -3.015990e-04 -1.919170e-04 -7.624043e-04 -6.219175e-04 -5.903842e-04
          -5.533414e-04 1.731551e-05 -3.992310e-05 -1.173547e-04 -2.533116e-04 -4.030184e-04
          -2.677768e-04 -1.767404e-04 -1.263825e-04 -1.932557e-04 -3.453949e-04 -4.935201e-04
          -5.886292e-04 -9.621030e-04 -1.125001e-03 2.783397e-04 -7.222845e-04 -9.379487e-04
          -8.171498e-04 -8.937213e-04 -9.216659e-04 -8.384225e-04 -7.356899e-04 -3.868535e-04
          -5.646505e-05 1.749091e-04 2.577456e-04 1.426112e-04 3.191214e-05 -1.346296e-04
          8.095231e-05 -1.535519e-04 -1.509588e-04 -2.366065e-04 -1.440377e-04 -1.633351e-04
          -8.990677e-05 6.434827e-05 -2.108782e-04 -5.259562e-04 5.882673e-05 1.871124e-04
          1.671176e-04 1.963362e-04 -8.081094e-06 6.109022e-05 -6.903198e-05 -9.376107e-05
          -1.024773e-04 -1.310726e-04 -1.492732e-05 4.959278e-05 1.514567e-04 2.365825e-04
          -1.099023e-04 -3.790074e-04 -4.275510e-04 -3.769684e-04 -2.501480e-04 -1.027837e-04
          6.683586e-06 3.068471e-04 4.755220e-04 -5.697120e-04 1.128584e-04 9.513106e-05
          -6.427182e-05 -1.838106e-05 1.486780e-06 -6.366472e-05 -1.421189e-04 -3.745466e-04
          -4.997629e-05 -6.327121e-05 -7.196420e-05 -6.481423e-05 -5.506894e-05 -3.654114e-05
          1.823249e-05 1.323922e-04 1.667637e-04 1.978294e-04 1.971036e-04 2.008034e-04
          2.129895e-04 2.151011e-04 2.246125e-04 2.270271e-04 1.248405e-04 5.021454e-05
          4.572324e-05 4.598649e-05 9.327104e-05 2.130118e-04 2.287945e-04 2.303598e-04
          2.242440e-04 9.170479e-05 6.294875e-05 5.859426e-05 5.508540e-05 6.105933e-05
          1.551267e-04 2.316998e-04 2.368935e-04 2.344953e-04 2.240017e-04 2.039332e-04
          1.867943e-04 1.704741e-04 1.484258e-04 1.714826e-04 1.227086e-04 1.610431e-04
          1.879904e-04 1.903022e-04 1.904856e-04 1.943820e-04 1.985524e-04 2.046850e-04
          -4.354051e-05 -8.535788e-05 -1.059584e-04 -8.480169e-05 -6.090663e-05 -2.061818e-05
          3.065582e-05 2.109846e-04 2.661496e-04 3.273113e-04 3.188484e-04 3.212453e-04
          3.046472e-04 2.759687e-04 3.145378e-04 3.490925e-04 1.485609e-04 3.275702e-05
          2.866249e-05 2.649333e-05 1.133144e-04 2.712006e-04 3.045191e-04 3.090604e-04
          3.014561e-04 1.206351e-04 6.904532e-05 5.644481e-05 4.110662e-05 4.077584e-05
          2.060888e-04 3.393020e-04 3.513004e-04 3.431931e-04 3.167370e-04 2.751175e-04
          2.402541e-04 1.870453e-04 1.401707e-04 2.846734e-04 1.760310e-04 2.451897e-04
          3.002958e-04 2.990491e-04 2.969546e-04 3.085395e-04 3.218224e-04 3.491174e-04
          -3.666628e-05 1.215028e-04 1.714866e-04 9.236220e-05 1.896352e-05 -8.974838e-05
          1.470509e-04 1.272155e-04 2.107572e-04 2.288019e-04 3.064925e-04 2.805865e-04
          2.637367e-04 3.297283e-04 1.230802e-04 -1.192894e-04 1.683224e-04 1.464488e-04
          1.238971e-04 1.484124e-04 6.889422e-05 3.154770e-04 2.338560e-04 2.165816e-04
          1.997261e-04 -4.071294e-05 2.510704e-06 4.550880e-05 1.188371e-04 1.949971e-04
          7.993773e-05 -3.661306e-06 -3.291808e-05 3.548700e-06 8.869330e-05 1.755020e-04
          2.331525e-04 4.384970e-04 5.354316e-04 -2.158555e-04 3.379694e-04 4.371714e-04
          3.621016e-04 4.018697e-04 4.163561e-04 3.705051e-04 3.144972e-04 1.266364e-04
          4.500615e-05 -6.113984e-05 -1.000485e-04 -4.754111e-05 2.450935e-06 7.711045e-05
          -1.753975e-05 9.984337e-05 1.126600e-04 1.668568e-04 1.273536e-04 1.305389e-04
          6.450770e-05 -2.619818e-05 9.616435e-05 2.381961e-04 -3.661390e-05 -1.013055e-04
          -9.255618e-05 -1.051554e-04 -7.057602e-06 -2.771432e-05 3.067215e-05 4.190541e-05
          4.516195e-05 4.491494e-05 -1.079490e-05 -4.039752e-05 -8.700872e-05 -1.251417e-04
          4.107706e-05 1.705521e-04 1.929109e-04 1.700857e-04 1.127512e-04 4.522191e-05
          -6.184076e-06 -1.440818e-04 -2.216782e-04 2.632559e-04 -1.471157e-05 1.580527e-05
          9.306464e-05 7.279801e-05 6.319684e-05 9.253320e-05 1.280684e-04 2.278345e-04
          -2.177011e-05 1.319258e-04 1.856432e-04 1.083565e-04 3.399322e-05 -7.869141e-05
          7.914486e-05 -4.603703e-05 -2.030565e-05 -5.378812e-05 1.221500e-05 -9.969721e-06
          -1.362922e-05 5.635782e-05 -1.334523e-04 -3.475483e-04 3.399567e-05 1.135862e-04
          1.001569e-04 1.206930e-04 -8.864130e-06 4.962566e-05 -3.923701e-05 -5.593452e-05
          -6.249826e-05 -9.728420e-05 -2.298554e-05 1.956943e-05 8.720065e-05 1.447626e-04
          -7.714718e-05 -2.495809e-04 -2.820080e-04 -2.476821e-04 -1.622698e-04 -6.472677e-05
          5.715010e-06 2.057017e-04 3.186367e-04 -3.657253e-04 1.433440e-04 1.673464e-04
          6.848352e-05 1.002798e-04 1.130272e-04 6.890674e-05 1.580696e-05 -1.490552e-04
          6.728278e-06 -4.906086e-05 -6.907059e-05 -4.130421e-05 -1.463431e-05 2.595858e-05
          -2.488586e-05 3.460492e-05 3.249488e-05 5.067431e-05 2.785667e-05 3.289122e-05
          1.645841e-05 -2.019204e-05 4.649727e-05 1.230660e-04 -1.320525e-05 -3.900297e-05
          -3.377996e-05 -4.094200e-05 6.101333e-06 -1.886065e-05 1.223477e-05 1.827158e-05
          2.079965e-05 3.704286e-05 1.040813e-05 -5.095049e-06 -2.997509e-05 -5.136722e-05
          2.698349e-05 8.756770e-05 9.894644e-05 8.670234e-05 5.603489e-05 2.054981e-05
          -5.497188e-06 -7.766594e-05 -1.171937e-04 1.371762e-04 -3.046725e-05 -2.938570e-05
          8.349666e-06 -2.874614e-06 -7.763555e-06 8.013878e-06 2.717697e-05 8.423180e-05
          5.241176e-05 1.213242e-04 1.445456e-04 1.097692e-04 7.519845e-05 2.044463e-05
          8.258331e-05 9.660470e-06 3.981186e-05 5.025330e-05 8.499406e-05 6.785426e-05
          2.739138e-05 3.603040e-05 -5.343238e-05 -1.532067e-04 -1.059229e-05 -3.813535e-06
          -1.230148e-05 -1.823449e-06 -4.612320e-05 2.746646e-05 -1.233663e-05 -2.013151e-05
          -2.581180e-05 -9.572985e-05 -7.095682e-05 -5.177078e-05 -2.020325e-05 1.037032e-05
          -5.879601e-05 -1.103612e-04 -1.233546e-04 -1.073705e-04 -6.777173e-05 -2.364830e-05
          5.772698e-06 9.338590e-05 1.382686e-04 -1.721660e-04 1.054604e-04 1.519803e-04
          1.140559e-04 1.296179e-04 1.349473e-04 1.143956e-04 8.954258e-05 4.099229e-06
          1.414754e-04 2.014880e-04 2.243697e-04 1.930703e-04 1.583508e-04 9.797928e-05
          8.852971e-05 -6.721987e-05 -5.162246e-05 -4.158898e-05 -1.054179e-05 -3.760651e-05
          -1.421980e-04 -1.778932e-04 -2.561740e-04 -3.321414e-04 -1.563582e-04 -1.000616e-04
          -1.029693e-04 -9.442970e-05 -1.584456e-04 -1.887299e-04 -2.333949e-04 -2.407053e-04
          -2.407889e-04 -2.021817e-04 -1.643126e-04 -1.470565e-04 -1.210293e-04 -1.025657e-04
          -2.179829e-04 -3.083399e-04 -3.213852e-04 -3.073271e-04 -2.680603e-04 -2.177638e-04
          -1.835559e-04 -1.087157e-04 -5.936211e-05 -2.879230e-04 2.400135e-05 6.704521e-05
          2.353727e-05 3.348070e-05 3.621321e-05 1.715283e-05 -5.408354e-06 -8.487178e-05
          1.034729e-04 6.496442e-05 4.877378e-05 6.745645e-05 8.417686e-05 1.056260e-04
          7.293477e-05 1.145837e-04 1.582595e-04 2.255986e-04 2.207380e-04 2.090649e-04
          1.163864e-04 4.296617e-05 7.788069e-05 1.199767e-04 -3.311148e-05 -1.105618e-04
          -1.117696e-04 -1.139076e-04 -5.106339e-05 3.263734e-05 5.435697e-05 5.782835e-05
          5.385826e-05 -5.020644e-05 -8.693153e-05 -9.779612e-05 -1.123052e-04 -1.172521e-04
          7.223815e-07 9.599800e-05 1.067477e-04 9.959219e-05 8.064687e-05 5.500135e-05
          3.094209e-05 -2.154812e-05 -5.970665e-05 1.075711e-04 9.341857e-05 1.722986e-04
          2.142539e-04 2.098526e-04 2.059864e-04 2.152282e-04 2.260164e-04 2.414000e-04
          -3.459440e-06 2.525224e-07 -8.125808e-06 -9.285536e-06 -5.713252e-06 3.069086e-06
          1.370568e-04 3.223279e-04 4.315559e-04 5.338562e-04 5.547483e-04 5.465856e-04
          5.123661e-04 4.972497e-04 4.709453e-04 4.245745e-04 2.329909e-04 3.576550e-05
          1.876321e-05 2.568891e-05 1.251415e-04 4.819765e-04 4.978566e-04 4.970882e-04
          4.776762e-04 8.568176e-05 2.419890e-05 2.377448e-05 3.279666e-05 6.672450e-05
          2.779685e-04 4.533787e-04 4.607096e-04 4.638161e-04 4.613203e-04 4.393290e-04
          4.134723e-04 4.167827e-04 3.821556e-04 2.776800e-04 3.589122e-04 5.054467e-04
          5.532325e-04 5.670880e-04 5.699060e-04 5.677788e-04 5.635208e-04 5.229841e-04
          -5.221392e-05 8.700661e-05 1.253549e-04 5.640250e-05 -4.009037e-06 -9.067591e-05
          2.010944e-04 3.019162e-04 4.357362e-04 5.071381e-04 5.857630e-04 5.623934e-04
          5.504329e-04 6.129718e-04 4.197605e-04 1.813004e-04 3.093747e-04 1.655109e-04
          1.352354e-04 1.603663e-04 1.537578e-04 5.929892e-04 5.338713e-04 5.184893e-04
          4.917425e-04 3.651066e-05 3.531576e-05 7.218767e-05 1.415012e-04 2.289106e-04
          2.625606e-04 3.007419e-04 2.801624e-04 3.134431e-04 3.847312e-04 4.450909e-04
          4.787186e-04 6.588197e-04 7.201781e-04 -2.476311e-06 5.024001e-04 6.674483e-04
          6.309816e-04 6.739167e-04 6.886997e-04 6.480599e-04 5.971286e-04 4.133806e-04
          3.164847e-05 -8.409726e-05 -1.286786e-04 -7.140121e-05 -1.507387e-05 6.993334e-05
          4.813120e-06 1.901931e-04 2.296187e-04 3.107148e-04 2.716445e-04 2.739295e-04
          1.980902e-04 9.760386e-05 2.255147e-04 3.699489e-04 2.691464e-05 -8.699724e-05
          -8.086117e-05 -9.325915e-05 3.685595e-05 9.302967e-05 1.608682e-04 1.729026e-04
          1.723316e-04 8.557960e-05 1.090818e-05 -2.197423e-05 -7.092210e-05 -1.053800e-04
          1.233926e-04 3.034567e-04 3.295185e-04 3.051253e-04 2.413528e-04 1.614976e-04
          9.874035e-05 -5.094837e-05 -1.433101e-04 3.642372e-04 7.216511e-05 1.369857e-04
          2.330009e-04 2.139145e-04 2.043483e-04 2.361043e-04 2.738894e-04 3.753763e-04
          -1.322983e-05 2.433870e-04 3.301094e-04 2.006344e-04 7.715659e-05 -1.110383e-04
          1.899019e-04 3.918098e-05 1.262312e-04 1.144461e-04 2.330835e-04 1.867562e-04
          1.322531e-04 2.205004e-04 -1.072140e-04 -4.785876e-04 1.019077e-04 1.781879e-04
          1.514405e-04 1.881432e-04 2.722288e-06 2.015738e-04 5.575083e-05 2.730710e-05
          1.089393e-05 -1.605703e-04 -5.480551e-05 1.555712e-05 1.310573e-04 2.364815e-04
          -7.181127e-05 -3.086756e-04 -3.605537e-04 -3.021902e-04 -1.593784e-04 -2.008246e-06
          1.073778e-04 4.413356e-04 6.204653e-04 -5.389779e-04 3.733493e-04 4.773663e-04
          3.295513e-04 3.866153e-04 4.083254e-04 3.335862e-04 2.428683e-04 -4.991670e-05
          1.266200e-04 1.346850e-04 1.365859e-04 1.305738e-04 1.217159e-04 1.014124e-04
          8.698673e-05 5.873756e-05 1.039332e-04 1.570821e-04 1.716852e-04 1.431956e-04
          -9.479750e-06 -9.954319e-05 -1.240282e-04 -1.388432e-04 -1.163285e-04 -1.093825e-04
          -1.090490e-04 -1.057251e-04 -1.091704e-04 -1.130768e-04 -1.278736e-04 -1.298655e-04
          -1.302026e-04 -1.318892e-04 -1.281303e-04 -1.260227e-04 -1.221468e-04 -1.194195e-04
          -1.319860e-04 -1.421871e-04 -1.441141e-04 -1.407278e-04 -1.303643e-04 -1.179216e-04
          -1.138464e-04 -1.044385e-04 -9.462429e-05 -9.199028e-05 1.008579e-04 1.845626e-04
          1.881543e-04 1.903975e-04 1.889489e-04 1.839551e-04 1.780313e-04 1.418420e-04
          1.624891e-04 1.880560e-04 1.919194e-04 1.774697e-04 1.614239e-04 1.303945e-04
          1.750768e-04 1.877266e-04 2.856736e-04 3.875282e-04 4.197095e-04 3.826207e-04
          1.994589e-04 1.012524e-04 4.535863e-05 -1.103019e-05 -4.039310e-05 -1.191379e-04
          -1.284501e-04 -1.196297e-04 -9.036109e-05 7.827222e-05 6.077032e-05 5.670206e-05
          4.646601e-05 -1.427262e-04 -1.600697e-04 -1.534780e-04 -1.384935e-04 -1.137455e-04
          -4.946120e-05 5.985665e-06 4.522004e-06 1.295806e-05 3.187812e-05 4.631054e-05
          4.675275e-05 7.660621e-05 8.088005e-05 -3.154195e-05 2.685971e-04 4.286266e-04
          4.433339e-04 4.549579e-04 4.556554e-04 4.449123e-04 4.314615e-04 3.566234e-04
          4.628284e-05 5.588062e-05 4.561482e-05 4.170375e-05 4.307791e-05 4.808170e-05
          2.221890e-04 4.479417e-04 6.077463e-04 7.622891e-04 7.960615e-04 7.791565e-04
          7.039417e-04 6.686758e-04 6.250232e-04 5.543490e-04 2.881929e-04 5.393454e-06
          -1.975741e-05 -8.886333e-06 1.300808e-04 6.439146e-04 6.624986e-04 6.608500e-04
          6.326064e-04 6.743787e-05 -1.885347e-05 -1.791768e-05 -3.129227e-06 4.753010e-05
          3.457821e-04 5.945122e-04 6.044738e-04 6.101131e-04 6.103420e-04 5.843972e-04
          5.505897e-04 5.590683e-04 5.116910e-04 3.494691e-04 5.104297e-04 7.333204e-04
          7.986710e-04 8.191037e-04 8.228109e-04 8.181073e-04 8.103100e-04 7.424470e-04
          -3.575034e-05 -5.002391e-05 -6.521676e-05 -5.691950e-05 -4.352244e-05 -1.755101e-05
          1.121447e-04 3.332171e-04 4.360229e-04 5.348200e-04 5.463719e-04 5.456558e-04
          5.379666e-04 5.305027e-04 5.281242e-04 5.060231e-04 2.655254e-04 5.558540e-05
          3.972144e-05 4.404113e-05 1.603768e-04 5.183142e-04 5.469222e-04 5.484350e-04
          5.293614e-04 1.344015e-04 6.279782e-05 5.742534e-05 5.832710e-05 8.594912e-05
          3.272778e-04 5.263183e-04 5.374046e-04 5.362721e-04 5.223007e-04 4.861765e-04
          4.508897e-04 4.312590e-04 3.825134e-04 3.506450e-04 3.425858e-04 4.754708e-04