<?xml version="1.0"?>
<VTKFile type="RectilinearGrid" version="0.1" byte_order="LittleEndian">
  <RectilinearGrid WholeExtent="0 47 0 47 0 47">
    <Piece Extent="0 47 0 47 0 47">
      <PointData Scalars="concentration">
        <DataArray type="Float32" Name="concentration" NumberOfComponents="1" format="ascii">
          1.731812e-03 1.744060e-03 1.767869e-03 1.774789e-03 1.749323e-03 1.647745e-03
          7.844171e-04 -9.261660e-04 -1.095031e-03 -1.002482e-03 -9.710381e-04 -9.341750e-04
          -6.743890e-04 -4.643314e-04 -3.953384e-04 -3.616144e-04 -9.641117e-04 -1.640836e-03
          -1.712957e-03 -1.705111e-03 -1.506175e-03 -5.061300e-04 -4.533622e-04 -4.552139e-04
          -5.100717e-04 -1.626485e-03 -1.775885e-03 -1.762663e-03 -1.725750e-03 -1.606860e-03
          -9.855299e-04 -4.299259e-04 -3.793295e-04 -3.785449e-04 -3.589063e-04 -3.056193e-04
          -2.818442e-04 -3.619785e-04 -5.530225e-04 -9.581372e-04 -9.377800e-04 -8.884960e-04
          -9.282777e-04 -9.330079e-04 -9.295199e-04 -9.328219e-04 -9.376189e-04 -1.010295e-03
          1.383227e-03 1.398449e-03 1.425646e-03 1.432412e-03 1.413298e-03 1.335756e-03
          5.563890e-04 -1.015577e-03 -1.260661e-03 -1.285168e-03 -1.276225e-03 -1.201743e-03
          -7.344029e-04 -4.006543e-04 -3.163942e-04 -2.757598e-04 -7.616716e-04 -1.324472e-03
          -1.387272e-03 -1.384586e-03 -1.239590e-03 -4.153887e-04 -3.600796e-04 -3.605674e-04
          -4.053614e-04 -1.315241e-03 -1.431483e-03 -1.417946e-03 -1.384783e-03 -1.283442e-03
          -7.825374e-04 -3.296500e-04 -2.864598e-04 -2.876055e-04 -2.748055e-04 -2.280357e-04
          -1.977541e-04 -2.627560e-04 -4.285182e-04 -8.482127e-04 -1.076250e-03 -1.189812e-03
          -1.254811e-03 -1.262734e-03 -1.256624e-03 -1.256680e-03 -1.257159e-03 -1.277718e-03
          7.537867e-04 9.694655e-04 1.063667e-03 9.699560e-04 8.671427e-04 6.876732e-04
          3.567655e-04 -9.505392e-04 -1.190195e-03 -1.364669e-03 -1.292819e-03 -1.210635e-03
          -5.507657e-04 -1.400901e-05 -1.734410e-04 -4.207268e-04 -2.862845e-04 -6.127934e-04
          -6.800932e-04 -6.554162e-04 -7.238808e-04 -7.224557e-06 -6.293971e-05 -8.343449e-05
          -1.260528e-04 -8.626718e-04 -8.515563e-04 -7.848060e-04 -6.699035e-04 -5.157997e-04
          -4.295688e-04 -3.136815e-04 -3.235675e-04 -2.818794e-04 -1.706108e-04 -2.062058e-05
          9.496439e-05 3.143955e-04 3.313171e-04 -9.761137e-04 -8.098464e-04 -1.031013e-03
          -1.229315e-03 -1.194371e-03 -1.168252e-03 -1.221510e-03 -1.286388e-03 -1.465026e-03
          3.789086e-04 2.166746e-04 1.768176e-04 2.711002e-04 3.567812e-04 4.793038e-04
          -6.662641e-05 -7.302852e-04 -1.038127e-03 -1.196036e-03 -1.300953e-03 -1.157164e-03
          -4.601818e-04 -8.836604e-05 2.125668e-04 4.900543e-04 -1.472212e-04 -4.925827e-04
          -5.097230e-04 -5.389694e-04 -3.524616e-04 -4.689876e-05 1.053232e-04 1.267357e-04
          1.150056e-04 -2.342714e-04 -3.619833e-04 -4.016487e-04 -4.613333e-04 -4.781050e-04
          -1.795926e-05 3.718341e-04 4.291058e-04 3.857158e-04 2.820171e-04 1.830192e-04
          1.262687e-04 -1.251977e-04 -3.392711e-04 1.056994e-04 -1.071582e-03 -1.428527e-03
          -1.390216e-03 -1.434534e-03 -1.439712e-03 -1.382915e-03 -1.314613e-03 -1.055368e-03
          3.239731e-04 4.918660e-04 5.648180e-04 4.938166e-04 4.223625e-04 3.081294e-04
          1.403916e-04 -7.422973e-04 -9.687483e-04 -1.173607e-03 -1.132172e-03 -1.033156e-03
          -3.238484e-04 2.126355e-04 1.018222e-04 -9.337766e-05 1.593809e-05 -2.321063e-04
          -2.843372e-04 -2.677638e-04 -3.238776e-04 2.365152e-04 2.062967e-04 1.917477e-04
          1.590336e-04 -4.061774e-04 -3.968083e-04 -3.454956e-04 -2.568682e-04 -1.379729e-04
          -7.603056e-05 8.607493e-06 -4.190880e-07 3.032035e-05 1.077174e-04 2.093906e-04
          2.948364e-04 4.721153e-04 4.854918e-04 -5.804038e-04 -6.722264e-04 -9.441660e-04
          -1.103591e-03 -1.075460e-03 -1.051940e-03 -1.089744e-03 -1.136358e-03 -1.238673e-03
          6.189938e-04 7.922254e-04 8.680376e-04 7.951190e-04 7.163493e-04 5.796636e-04
          3.040601e-04 -7.977631e-04 -1.010654e-03 -1.163733e-03 -1.108556e-03 -1.020658e-03
          -3.632291e-04 1.501979e-04 3.371171e-05 -1.684594e-04 -1.488171e-04 -5.030887e-04
          -5.662833e-04 -5.463025e-04 -5.669464e-04 1.596906e-04 1.307468e-04 1.149154e-04
          7.282135e-05 -6.806898e-04 -6.959141e-04 -6.420126e-04 -5.460693e-04 -4.069574e-04
          -2.464929e-04 -7.479495e-05 -7.726221e-05 -4.454631e-05 4.015660e-05 1.525446e-04
          2.400785e-04 4.109111e-04 4.000785e-04 -7.237346e-04 -7.039834e-04 -9.090959e-04
          -1.066049e-03 -1.036009e-03 -1.012688e-03 -1.053498e-03 -1.104045e-03 -1.238516e-03
          1.067632e-03 8.593575e-04 8.052494e-04 9.235714e-04 1.019324e-03 1.130247e-03
          2.832317e-04 -8.140316e-04 -1.087450e-03 -1.102714e-03 -1.198967e-03 -1.081195e-03
          -5.532583e-04 -2.936093e-04 6.097456e-05 4.031388e-04 -5.632954e-04 -1.159991e-03
          -1.194814e-03 -1.223679e-03 -9.138482e-04 -2.852405e-04 -1.013957e-04 -7.687128e-05
          -1.057827e-04 -8.359448e-04 -1.042752e-03 -1.092762e-03 -1.162277e-03 -1.158238e-03
          -4.094731e-04 2.266216e-04 3.097655e-04 2.583022e-04 1.406608e-04 3.142623e-05
          -4.650301e-05 -3.870198e-04 -6.927470e-04 -9.816047e-05 -1.163544e-03 -1.357222e-03
          -1.274196e-03 -1.326312e-03 -1.337605e-03 -1.271750e-03 -1.193092e-03 -9.509749e-04
          1.177201e-03 1.503056e-03 1.635047e-03 1.486210e-03 1.322578e-03 1.033696e-03
          6.799925e-04 -9.739341e-04 -1.141630e-03 -1.230440e-03 -1.088411e-03 -1.049162e-03
          -5.340439e-04 -2.568690e-05 -3.301246e-04 -7.383709e-04 -4.933797e-04 -9.331898e-04
          -1.025715e-03 -9.808477e-04 -1.073043e-03 -5.049017e-05 -1.660339e-04 -2.000218e-04
          -2.621214e-04 -1.325897e-03 -1.306587e-03 -1.208160e-03 -1.037122e-03 -8.134071e-04
          -7.156587e-04 -5.758819e-04 -5.979213e-04 -5.295856e-04 -3.495463e-04 -1.206445e-04
          4.074546e-05 3.855373e-04 4.430497e-04 -1.394782e-03 -6.556551e-04 -7.138455e-04
          -9.634406e-04 -9.022903e-04 -8.684493e-04 -9.566057e-04 -1.064273e-03 -1.413342e-03
          1.159887e-03 1.129943e-03 1.138357e-03 1.166892e-03 1.173719e-03 1.144646e-03
          4.382586e-04 -8.776933e-04 -1.110186e-03 -1.138414e-03 -1.152600e-03 -1.069966e-03
          -5.968029e-04 -2.853364e-04 -1.535763e-04 -5.932447e-05 -6.072645e-04 -1.137557e-03
          -1.190299e-03 -1.194289e-03 -1.024930e-03 -2.917177e-04 -2.126206e-04 -2.079527e-04
          -2.466423e-04 -1.061233e-03 -1.188251e-03 -1.188517e-03 -1.178152e-03 -1.103125e-03
          -5.865090e-04 -1.283772e-04 -8.082685e-05 -9.195421e-05 -1.077088e-04 -9.919456e-05
          -9.469572e-05 -2.074069e-04 -3.884855e-04 -5.861519e-04 -9.956476e-04 -1.126589e-03
          -1.155760e-03 -1.170944e-03 -1.168112e-03 -1.154601e-03 -1.138965e-03 -1.101256e-03
          7.129149e-04 7.461418e-04 7.739757e-04 7.703879e-04 7.554464e-04 7.112200e-04
          2.526493e-04 -7.847647e-04 -1.017524e-03 -1.129026e-03 -1.131430e-03 -1.037319e-03
          -4.572422e-04 -5.814255e-05 -5.377045e-06 -6.061013e-06 -2.935903e-04 -6.793945e-04
          -7.265724e-04 -7.253896e-04 -6.463412e-04 -4.696493e-05 -4.242519e-06 -5.295457e-06
          -3.765770e-05 -6.820452e-04 -7.527433e-04 -7.373003e-04 -7.045358e-04 -6.246344e-04
          -3.048551e-04 -1.182714e-05 1.347514e-05 1.538060e-05 2.636974e-05 5.872651e-05
          8.775815e-05 7.558201e-05 -2.863712e-05 -4.884714e-04 -8.517058e-04 -1.060417e-03
          -1.132027e-03 -1.133092e-03 -1.123142e-03 -1.125153e-03 -1.128267e-03 -1.120957e-03
          9.434601e-06 5.601546e-05 8.240287e-05 7.017497e-05 6.148209e-05 5.474814e-05
          -6.887518e-05 -5.272494e-04 -7.412565e-04 -9.375473e-04 -9.531790e-04 -8.427266e-04
          -1.731868e-04 2.734261e-04 2.969996e-04 2.606059e-04 1.821025e-04 -5.467694e-06
          -3.423231e-05 -3.518438e-05 -2.587717e-05 3.107757e-04 3.403664e-04 3.392239e-04
          3.213834e-04 -1.692129e-05 -3.868996e-05 -2.284655e-05 6.498159e-06 5.923985e-05
          1.820052e-04 3.005378e-04 3.072677e-04 3.113674e-04 3.183825e-04 3.334199e-04
          3.592173e-04 3.963729e-04 3.570731e-04 -1.062275e-04 -6.025290e-04 -9.025278e-04
          -9.769900e-04 -9.721756e-04 -9.591120e-04 -9.620767e-04 -9.664269e-04 -9.269732e-04
          -3.646165e-04 -3.519240e-04 -3.468628e-04 -3.461673e-04 -3.340223e-04 -2.949512e-04
          -1.889798e-04 -1.198096e-04 -2.294544e-04 -3.729615e-04 -3.963617e-04 -3.082975e-04
          2.008239e-04 5.230774e-04 5.506828e-04 5.304192e-04 4.521525e-04 3.454593e-04
          3.318264e-04 3.284455e-04 3.547707e-04 5.595713e-04 5.951627e-04 5.971830e-04
          5.871321e-04 3.882603e-04 3.648322e-04 3.681915e-04 3.774945e-04 4.007863e-04
          4.934996e-04 5.742451e-04 5.775243e-04 5.762804e-04 5.624166e-04 5.384333e-04
          5.333347e-04 5.497491e-04 5.241958e-04 2.880148e-04 -2.003673e-04 -4.165190e-04
          -4.364540e-04 -4.311833e-04 -4.218245e-04 -4.169097e-04 -4.121678e-04 -3.501110e-04
          -3.611164e-04 -3.761109e-04 -3.890961e-04 -3.792110e-04 -3.579205e-04 -3.067882e-04
          -1.048771e-04 2.429026e-04 2.705983e-04 2.581040e-04 2.465847e-04 2.828919e-04
          4.771120e-04 5.886413e-04 6.056874e-04 5.952967e-04 4.546313e-04 3.484557e-04
          3.415658e-04 3.401953e-04 4.089477e-04 6.024806e-04 6.358002e-04 6.389541e-04
          6.294837e-04 4.271697e-04 3.849040e-04 3.787453e-04 3.749041e-04 3.850555e-04
          5.194087e-04 6.267963e-04 6.318320e-04 6.281771e-04 6.056865e-04 5.613522e-04
          5.308924e-04 5.207683e-04 4.926340e-04 4.596170e-04 2.006278e-04 1.763979e-04
          2.138737e-04 2.207617e-04 2.245725e-04 2.323263e-04 2.401882e-04 2.769053e-04
          -3.010849e-04 -2.559605e-04 -2.502552e-04 -2.738333e-04 -2.873465e-04 -2.940349e-04
          -1.352612e-05 3.501280e-04 4.527032e-04 4.913503e-04 5.182997e-04 5.078053e-04
          4.839121e-04 4.868790e-04 4.062783e-04 3.059466e-04 3.604109e-04 3.350317e-04
          3.288800e-04 3.379722e-04 3.450675e-04 4.833756e-04 4.645745e-04 4.598294e-04
          4.515109e-04 3.128679e-04 3.102024e-04 3.201435e-04 3.409013e-04 3.652708e-04
          3.681715e-04 3.681442e-04 3.568719e-04 3.686342e-04 3.866901e-04 3.882172e-04
          3.854711e-04 4.575330e-04 4.913630e-04 2.659262e-04 4.250487e-04 5.122799e-04
          5.232852e-04 5.435274e-04 5.492325e-04 5.361653e-04 5.192550e-04 4.596921e-04
          -1.155567e-04 -1.983783e-04 -2.352802e-04 -1.973454e-04 -1.578809e-04 -9.403725e-05
          -2.331467e-05 3.488532e-04 4.478066e-04 5.481162e-04 5.275610e-04 5.013436e-04
          2.846883e-04 1.071398e-04 1.732330e-04 2.625930e-04 8.405856e-05 7.780439e-05
          9.101530e-05 8.356971e-05 1.616037e-04 9.740892e-05 1.315951e-04 1.395050e-04
          1.444158e-04 1.941902e-04 1.548380e-04 1.298750e-04 9.130996e-05 5.383899e-05
          1.525026e-04 2.215828e-04 2.335197e-04 2.178586e-04 1.744366e-04 1.139439e-04
          6.373396e-05 -3.156348e-05 -7.101482e-05 3.633747e-04 2.971671e-04 4.190019e-04
          5.049341e-04 4.944663e-04 4.855909e-04 5.060141e-04 5.304703e-04 5.854184e-04
          -1.536239e-04 -6.757407e-05 -4.500937e-05 -9.266562e-05 -1.360155e-04 -1.980790e-04
          4.769530e-05 2.968328e-04 4.249914e-04 4.862103e-04 5.377276e-04 4.815779e-04
          2.283225e-04 1.061965e-04 -3.887888e-05 -1.822591e-04 9.517324e-05 2.139585e-04
          2.161348e-04 2.308165e-04 1.513801e-04 8.893306e-05 2.013719e-05 9.463363e-06
          1.047847e-05 8.973069e-05 1.423035e-04 1.640103e-04 1.983969e-04 2.179210e-04
          3.473020e-05 -1.183682e-04 -1.441524e-04 -1.220403e-04 -7.018977e-05 -2.042532e-05
          9.335424e-06 1.360365e-04 2.300033e-04 -6.250709e-05 4.568782e-04 6.046569e-04
          5.790734e-04 6.024108e-04 6.068493e-04 5.783241e-04 5.439523e-04 4.176940e-04
          -4.367631e-04 -4.940249e-04 -5.189035e-04 -4.922231e-04 -4.577158e-04 -3.880867e-04
          -2.294969e-04 2.258688e-04 2.454594e-04 2.219109e-04 1.883722e-04 1.982119e-04
          1.988924e-04 1.624896e-04 2.183675e-04 2.850781e-04 2.709828e-04 3.809530e-04
          4.004877e-04 3.907976e-04 3.976970e-04 1.787156e-04 2.034388e-04 2.102648e-04
          2.235971e-04 4.609415e-04 4.639739e-04 4.457895e-04 4.138651e-04 3.689556e-04
          3.226342e-04 2.711126e-04 2.717420e-04 2.590892e-04 2.216118e-04 1.701577e-04
          1.377609e-04 8.530428e-05 8.446636e-05 3.971545e-04 1.508746e-04 1.088989e-04
          1.531028e-04 1.437350e-04 1.393503e-04 1.566950e-04 1.776803e-04 2.608925e-04
          -6.626291e-04 -6.816799e-04 -6.866869e-04 -6.710126e-04 -6.398438e-04 -5.609104e-04
          -3.966515e-04 -1.177920e-04 -2.665821e-04 -4.773564e-04 -5.298096e-04 -4.254103e-04
          1.420391e-04 4.779329e-04 5.477372e-04 5.792368e-04 5.683649e-04 5.972504e-04
          6.006341e-04 5.889566e-04 5.804164e-04 5.332158e-04 5.788890e-04 5.850994e-04
          5.896441e-04 6.684990e-04 6.703787e-04 6.640551e-04 6.527373e-04 6.389988e-04
          6.249152e-04 6.096290e-04 6.099928e-04 6.004808e-04 5.655181e-04 5.187992e-04
          5.050383e-04 4.943915e-04 4.820458e-04 4.402213e-04 -2.609407e-04 -5.776433e-04
          -5.930484e-04 -5.977055e-04 -5.909627e-04 -5.751724e-04 -5.568807e-04 -4.267114e-04
          -7.177549e-04 -4.221181e-04 -3.168561e-04 -4.558708e-04 -5.708730e-04 -7.102934e-04
          -2.296380e-04 -2.666998e-04 -3.975832e-04 -7.044106e-04 -6.272061e-04 -5.347851e-04
          2.197339e-04 8.235234e-04 5.222330e-04 1.112919e-04 7.679601e-04 8.410850e-04
          8.051631e-04 8.351264e-04 6.050641e-04 8.728530e-04 7.588149e-04 7.317895e-04
          7.128014e-04 5.126621e-04 6.355510e-04 7.167195e-04 8.488008e-04 9.724761e-04
          6.214877e-04 3.540087e-04 2.951487e-04 3.545828e-04 4.873395e-04 6.284239e-04
          7.518773e-04 1.144148e-03 1.330933e-03 -2.147638e-04 -5.305689e-05 -3.724518e-04
          -5.889154e-04 -5.260361e-04 -4.895650e-04 -5.612209e-04 -6.492969e-04 -8.393450e-04
          -6.359415e-04 -7.298882e-04 -7.610935e-04 -7.061755e-04 -6.363374e-04 -4.979199e-04
          -4.198914e-04 -1.192227e-04 -2.936945e-04 -4.954116e-04 -5.814338e-04 -4.520369e-04
          1.998275e-04 5.551078e-04 7.251952e-04 8.588096e-04 6.011780e-04 5.281132e-04
          5.316925e-04 5.101720e-04 5.883680e-04 6.160465e-04 7.155552e-04 7.303567e-04
          7.326998e-04 7.174955e-04 6.665782e-04 6.397543e-04 5.979197e-04 5.666174e-04
          7.233513e-04 8.461802e-04 8.661314e-04 8.394180e-04 7.598036e-04 6.603419e-04
          6.087695e-04 4.965973e-04 4.124500e-04 6.551345e-04 -3.669963e-04 -7.119235e-04
          -6.774635e-04 -6.962775e-04 -6.942051e-04 -6.556783e-04 -6.104049e-04 -3.945846e-04
          -7.329941e-04 -7.316229e-04 -7.432096e-04 -7.427680e-04 -7.223925e-04 -6.578704e-04
          -2.533564e-04 4.192471e-04 4.741910e-04 4.295432e-04 4.177645e-04 4.580008e-04
          6.809227e-04 8.106874e-04 7.968182e-04 7.498093e-04 7.263933e-04 7.138126e-04
          7.147043e-04 7.142944e-04 7.477878e-04 8.353958e-04 8.570929e-04 8.589675e-04
          8.552147e-04 7.794292e-04 7.620915e-04 7.584905e-04 7.574100e-04 7.593532e-04
          7.943384e-04 8.138347e-04 8.075826e-04 8.075112e-04 7.880434e-04 7.384724e-04
          7.076910e-04 7.360912e-04 7.467757e-04 6.670464e-04 3.901679e-04 3.408860e-04
          3.768352e-04 3.901900e-04 3.964604e-04 4.008006e-04 4.040943e-04 4.422124e-04
          -8.134481e-04 -7.558435e-04 -7.583367e-04 -7.915560e-04 -8.013981e-04 -7.818174e-04
          -1.399525e-04 8.443400e-04 1.075410e-03 1.155909e-03 1.194001e-03 1.165333e-03
          1.042257e-03 9.799991e-04 8.441005e-04 6.824236e-04 8.112377e-04 8.514308e-04
          8.532387e-04 8.667127e-04 8.745777e-04 9.773195e-04 9.467731e-04 9.404873e-04
          9.340635e-04 8.419989e-04 8.461775e-04 8.556433e-04 8.777641e-04 8.963870e-04
          8.474388e-04 7.937344e-04 7.699885e-04 7.866878e-04 8.045533e-04 7.834774e-04
          7.616080e-04 8.769718e-04 9.520346e-04 7.112731e-04 9.647036e-04 1.142492e-03
          1.190120e-03 1.224379e-03 1.232145e-03 1.214871e-03 1.191615e-03 1.110697e-03
          -7.898766e-04 -1.059906e-03 -1.175455e-03 -1.045374e-03 -8.993429e-04 -6.439755e-04
          -3.493990e-04 9.078917e-04 1.075345e-03 1.213135e-03 1.107869e-03 1.117446e-03
          9.464215e-04 6.976235e-04 9.643889e-04 1.268000e-03 6.676418e-04 6.246488e-04
          6.629509e-04 6.314805e-04 8.783699e-04 7.107266e-04 8.584208e-04 8.876224e-04
          9.029293e-04 1.043608e-03 9.139447e-04 8.327555e-04 7.070536e-04 5.887978e-04
          9.239771e-04 1.162707e-03 1.203421e-03 1.146929e-03 9.855338e-04 7.642283e-04
          5.996160e-04 2.921985e-04 1.468086e-04 1.419390e-03 6.276594e-04 7.397263e-04
          9.880845e-04 9.512851e-04 9.302162e-04 1.006361e-03 1.096496e-03 1.369988e-03
          -9.024949e-04 -6.607284e-04 -5.943893e-04 -7.193958e-04 -8.177240e-04 -9.305097e-04
          -1.394946e-04 6.297817e-04 8.260566e-04 7.976922e-04 9.015952e-04 8.637424e-04
          8.317421e-04 9.105570e-04 5.633737e-04 1.628140e-04 8.235141e-04 1.032301e-03
          1.023749e-03 1.058229e-03 8.702840e-04 9.124947e-04 7.740131e-04 7.483476e-04
          7.413319e-04 7.551107e-04 8.724002e-04 9.334536e-04 1.033995e-03 1.109543e-03
          7.133257e-04 3.856961e-04 3.203096e-04 3.763888e-04 4.953843e-04 5.968791e-04
          6.698222e-04 1.026001e-03 1.248227e-03 1.990954e-04 9.477180e-04 1.054199e-03
          9.592249e-04 1.026042e-03 1.049493e-03 9.810607e-04 8.968219e-04 6.469822e-04
          -5.272113e-04 -5.421252e-04 -5.564123e-04 -5.528964e-04 -5.382763e-04 -4.961285e-04
          -2.037827e-04 3.885110e-04 4.734608e-04 4.809358e-04 4.727505e-04 4.589605e-04
          3.590655e-04 2.779641e-04 2.631408e-04 2.560333e-04 3.562742e-04 5.019847e-04
          5.204007e-04 5.185565e-04 4.966074e-04 2.861110e-04 2.808665e-04 2.825073e-04
          2.943795e-04 5.282253e-04 5.505634e-04 5.429912e-04 5.287648e-04 4.971894e-04
          3.842905e-04 2.772683e-04 2.663044e-04 2.643387e-04 2.510488e-04 2.208222e-04
          2.003094e-04 2.100087e-04 2.502699e-04 4.022885e-04 3.897588e-04 4.206693e-04
          4.553600e-04 4.584473e-04 4.570778e-04 4.608186e-04 4.651023e-04 4.871556e-04
          -1.643911e-04 -2.207485e-04 -2.438703e-04 -2.200539e-04 -1.953750e-04 -1.541598e-04
          -9.773320e-05 2.034264e-04 2.567909e-04 2.969718e-04 2.774487e-04 2.503525e-04
          4.569393e-05 -1.153102e-04 -7.326141e-05 -1.745365e-06 1.503693e-06 1.250153e-04
          1.458790e-04 1.389261e-04 1.384000e-04 -1.175570e-04 -1.090160e-04 -1.037809e-04
          -8.904144e-05 1.771685e-04 1.860830e-04 1.689611e-04 1.374665e-04 9.084691e-05
          2.750848e-05 -3.678363e-05 -3.578244e-05 -4.672765e-05 -7.346265e-05 -1.062924e-04
          -1.312394e-04 -1.885675e-04 -1.850562e-04 1.830656e-04 1.688153e-04 2.200309e-04
          2.646579e-04 2.533244e-04 2.455675e-04 2.589858e-04 2.756373e-04 3.222486e-04
          -2.386104e-04 -9.633875e-05 -5.138205e-05 -1.263442e-04 -1.943967e-04 -2.906534e-04
          2.101263e-06 1.795188e-04 2.684109e-04 2.634692e-04 3.285859e-04 2.838698e-04
          1.393182e-04 1.098993e-04 -9.103900e-05 -3.034263e-04 1.432925e-04 3.193574e-04
          3.182991e-04 3.382536e-04 1.929549e-04 1.013405e-04 3.985901e-06 -1.201775e-05
          -1.038173e-05 1.163593e-04 2.063540e-04 2.439789e-04 3.018738e-04 3.378401e-04
          4.042201e-05 -2.026702e-04 -2.412610e-04 -2.080342e-04 -1.278982e-04 -4.291224e-05
          1.712686e-05 2.179811e-04 3.559736e-04 -2.008819e-04 3.818990e-04 4.585844e-04
          3.820463e-04 4.143531e-04 4.246616e-04 3.820337e-04 3.305547e-04 1.683017e-04
          -5.039700e-05 -1.714661e-04 -2.168696e-04 -1.583878e-04 -1.008900e-04 -1.210948e-05
          -6.715510e-05 1.757545e-04 2.050914e-04 2.650187e-04 2.191779e-04 2.156843e-04
          9.825171e-05 -3.450725e-05 9.733735e-05 2.567612e-04 -2.533053e-06 -1.904254e-05
          -3.120344e-06 -1.780086e-05 7.556244e-05 -3.494027e-05 2.483142e-05 3.749422e-05
          4.592182e-05 1.412141e-04 9.135097e-05 5.694659e-05 1.356932e-06 -5.179078e-05
          8.326067e-05 1.826172e-04 2.039946e-04 1.782664e-04 1.131978e-04 3.525597e-05
          -2.344404e-05 -1.737537e-04 -2.459370e-04 3.416267e-04 5.117027e-05 9.004909e-05
          1.796590e-04 1.567222e-04 1.452509e-04 1.782857e-04 2.180517e-04 3.331282e-04
          1.857960e-04 3.250046e-04 3.710189e-04 3.002501e-04 2.291396e-04 1.130797e-04
          2.258242e-04 5.430971e-05 1.375777e-04 1.901046e-04 2.666000e-04 2.228644e-04
          9.258962e-05 8.154692e-05 -1.046468e-04 -3.107564e-04 -5.690098e-05 -7.851750e-05
          -9.865058e-05 -7.581311e-05 -1.486985e-04 5.728341e-05 -2.333636e-05 -3.950096e-05
          -5.407849e-05 -2.614521e-04 -2.215323e-04 -1.828549e-04 -1.175722e-04 -5.006351e-05
          -1.527397e-04 -2.257380e-04 -2.499603e-04 -2.170278e-04 -1.352367e-04 -4.519013e-05
          1.182410e-05 1.862414e-04 2.697080e-04 -3.617790e-04 2.614355e-04 3.993875e-04
          3.303416e-04 3.632654e-04 3.738347e-04 3.313012e-04 2.793847e-04 9.250088e-05
          1.846208e-04 1.200860e-04 9.819844e-05 1.317294e-04 1.613219e-04 2.000251e-04
          6.262420e-05 -2.809349e-05 -3.967681e-05 -7.000302e-07 -2.286968e-05 -1.298084e-05
          -2.941648e-06 -2.248851e-05 6.169499e-05 1.516980e-04 -9.072161e-05 -2.108350e-04
          -2.138064e-04 -2.208574e-04 -1.350000e-04 -2.630046e-05 1.784950e-05 2.475346e-05
          2.022561e-05 -1.141894e-04 -1.671363e-04 -1.841977e-04 -2.089062e-04 -2.186841e-04
          -4.084701e-05 1.055324e-04 1.250619e-04 1.108591e-04 7.615529e-05 3.742421e-05
          6.605593e-06 -8.683333e-05 -1.571344e-04 9.048402e-05 -1.040409e-04 -8.682584e-05
          -4.216449e-05 -5.462551e-05 -5.965444e-05 -4.139977e-05 -1.973455e-05 3.753446e-05
          -8.943042e-05 -2.421122e-05 -1.246632e-06 -3.031365e-05 -5.404450e-05 -8.347869e-05
          -1.173792e-06 -7.685274e-05 -1.109519e-04 -1.711907e-04 -1.524965e-04 -1.212612e-04
          1.110479e-04 2.885296e-04 2.284674e-04 1.340477e-04 1.949852e-04 1.238940e-04
          1.073869e-04 1.149831e-04 9.791933e-05 2.983871e-04 2.844922e-04 2.788593e-04
          2.671288e-04 6.879108e-05 7.275426e-05 9.105771e-05 1.237656e-04 1.654350e-04
          1.750055e-04 1.909626e-04 1.832744e-04 1.961883e-04 2.233028e-04 2.498722e-04
          2.726079e-04 3.529112e-04 3.717854e-04 -2.490978e-05 -3.655163e-05 -1.040295e-04
          -1.469911e-04 -1.311426e-04 -1.216111e-04 -1.366453e-04 -1.556113e-04 -1.990882e-04
          -1.390305e-04 -7.953002e-05 -5.884326e-05 -8.428832e-05 -1.029559e-04 -1.218297e-04
          -2.595274e-05 -7.309447e-05 -1.164928e-04 -1.887180e-04 -1.752840e-04 -1.333096e-04
          1.551667e-04 3.648729e-04 3.156834e-04 2.272533e-04 2.578988e-04 1.676313e-04
          1.499947e-04 1.564471e-04 1.507670e-04 3.789297e-04 3.735733e-04 3.689357e-04
          3.559760e-04 1.289396e-04 1.254210e-04 1.420194e-04 1.728154e-04 2.150362e-04
          2.494862e-04 2.858590e-04 2.800876e-04 2.913153e-04 3.126781e-04 3.309197e-04
          3.487656e-04 4.220937e-04 4.325538e-04 3.938094e-05 -4.963788e-05 -1.384176e-04
          -1.772241e-04 -1.618398e-04 -1.517812e-04 -1.642275e-04 -1.802035e-04 -2.098877e-04
          -1.971605e-04 -2.346220e-04 -2.446705e-04 -2.224932e-04 -1.962927e-04 -1.461456e-04
          -1.661553e-04 -1.343997e-04 -2.286787e-04 -3.243085e-04 -3.611656e-04 -3.069162e-04
          -3.204194e-05 1.196115e-04 1.940316e-04 2.561378e-04 1.680485e-04 1.515871e-04
          1.535671e-04 1.441641e-04 1.641118e-04 1.452528e-04 1.837309e-04 1.897098e-04
          1.922178e-04 2.185291e-04 2.042535e-04 1.941566e-04 1.773492e-04 1.628832e-04
          2.080033e-04 2.439560e-04 2.522677e-04 2.410870e-04 2.106319e-04 1.767036e-04
          1.615244e-04 1.139824e-04 8.049230e-05 1.810471e-04 -2.396929e-04 -4.015572e-04
          -3.976677e-04 -4.078362e-04 -4.072856e-04 -3.917924e-04 -3.730959e-04 -2.826666e-04
          -2.510213e-04 -2.469548e-04 -2.390753e-04 -2.390041e-04 -2.356370e-04 -2.203921e-04
          -2.246089e-04 -2.435799e-04 -3.644851e-04 -5.096232e-04 -5.363940e-04 -4.923134e-04
          -2.475131e-04 -9.877588e-05 -7.237456e-05 -5.184587e-05 8.580141e-05 2.150632e-04
          2.246341e-04 2.179823e-04 1.463480e-04 -6.895657e-05 -6.778498e-05 -6.639265e-05
          -5.425202e-05 1.954712e-04 2.377142e-04 2.393469e-04 2.360110e-04 2.166675e-04
          7.188869e-05 -4.842051e-05 -5.506381e-05 -5.765220e-05 -6.216088e-05 -5.877147e-05
          -4.279572e-05 -3.158240e-05 -7.349644e-06 -2.626036e-05 -3.044708e-04 -5.122119e-04
          -5.550791e-04 -5.623928e-04 -5.600653e-04 -5.566755e-04 -5.515923e-04 -4.918893e-04
          -8.597532e-05 4.981043e-05 1.047254e-04 3.774645e-05 -2.789184e-05 -1.257475e-04
          -6.614756e-05 -3.083828e-04 -3.910235e-04 -5.265138e-04 -4.884807e-04 -4.818671e-04
          -3.419880e-04 -1.939713e-04 -3.355136e-04 -4.952127e-04 -4.298295e-05 1.397658e-04
          1.365727e-04 1.490219e-04 -2.942382e-05 -1.809437e-04 -2.622364e-04 -2.760261e-04
          -2.705735e-04 -7.231902e-05 3.103277e-05 6.971942e-05 1.254676e-04 1.579761e-04
          -1.642277e-04 -4.202576e-04 -4.529070e-04 -4.252590e-04 -3.510057e-04 -2.541028e-04
          -1.743581e-04 2.807821e-06 1.200092e-04 -4.652526e-04 -1.862296e-04 -3.199434e-04
          -4.464476e-04 -4.274770e-04 -4.159362e-04 -4.523385e-04 -4.950741e-04 -5.975642e-04
          4.644503e-04 3.327596e-04 2.925956e-04 3.564369e-04 4.051207e-04 4.575369e-04
          1.007172e-04 -1.420608e-04 -1.649178e-04 -8.184477e-05 -1.256193e-04 -1.487521e-04
          -3.822839e-04 -5.848670e-04 -4.266855e-04 -2.196379e-04 -5.001687e-04 -5.273894e-04
          -5.127499e-04 -5.289514e-04 -4.470292e-04 -5.999989e-04 -5.461417e-04 -5.336110e-04
          -5.232668e-04 -3.960994e-04 -4.417771e-04 -4.762377e-04 -5.345866e-04 -5.902008e-04
          -4.523574e-04 -3.439302e-04 -3.150518e-04 -3.432800e-04 -4.012858e-04 -4.517635e-04
          -4.934052e-04 -6.776445e-04 -7.690885e-04 -9.866223e-05 -2.659015e-04 -2.109500e-04
          -1.423524e-04 -1.769510e-04 -1.930922e-04 -1.597223e-04 -1.180854e-04 -1.431480e-05
          7.186333e-04 9.477519e-04 1.030127e-03 9.124861e-04 7.823667e-04 5.521277e-04
          5.144688e-04 -1.316109e-04 -1.714806e-05 1.006674e-04 2.347084e-04 1.335255e-04
          -2.448251e-04 -3.600517e-04 -6.633502e-04 -9.769939e-04 -5.238965e-04 -5.307149e-04
          -5.621101e-04 -5.241893e-04 -6.711289e-04 -4.156788e-04 -5.650555e-04 -5.931209e-04
          -6.132466e-04 -8.753955e-04 -7.941700e-04 -7.284323e-04 -6.206655e-04 -5.137631e-04
          -7.245468e-04 -8.745978e-04 -9.123831e-04 -8.577879e-04 -7.104153e-04 -5.317591e-04
          -4.193023e-04 -1.459072e-04 -7.963549e-06 -9.865670e-04 2.330133e-04 4.996837e-04
          3.657572e-04 4.120377e-04 4.252853e-04 3.519861e-04 2.640761e-04 -6.956921e-05
          7.319463e-04 7.201285e-04 7.248739e-04 7.350814e-04 7.303728e-04 6.956444e-04
          3.109619e-04 -3.853854e-04 -4.547182e-04 -4.098349e-04 -4.033491e-04 -3.952086e-04
          -3.428045e-04 -2.990608e-04 -2.534087e-04 -2.122062e-04 -4.607039e-04 -7.058864e-04
          -7.301260e-04 -7.291934e-04 -6.507041e-04 -3.174265e-04 -2.933130e-04 -2.925366e-04
          -3.106669e-04 -6.895708e-04 -7.473126e-04 -7.464740e-04 -7.401706e-04 -7.044034e-04
          -4.677032e-04 -2.567538e-04 -2.345307e-04 -2.377899e-04 -2.363934e-04 -2.197133e-04
          -2.138453e-04 -2.671937e-04 -3.478586e-04 -4.066017e-04 -4.034164e-04 -3.780685e-04
          -3.871999e-04 -3.942978e-04 -3.954204e-04 -3.927807e-04 -3.895099e-04 -4.051444e-04
          2.015629e-05 3.723127e-05 5.319485e-05 5.196056e-05 5.147370e-05 5.399004e-05
          -8.716890e-05 -4.522361e-04 -6.325854e-04 -7.919410e-04 -8.141160e-04 -7.338949e-04
          -2.625307e-04 4.349397e-05 8.443528e-05 9.167902e-05 5.217751e-05 -3.397911e-05
          -4.842971e-05 -5.253711e-05 -6.057876e-05 7.372723e-05 9.795280e-05 9.897988e-05
          9.223040e-05 -3.637733e-05 -4.207998e-05 -3.481400e-05 -2.293841e-05 -4.590183e-07
          4.956233e-05 1.018648e-04 1.077655e-04 1.065784e-04 1.046361e-04 1.124789e-04
          1.310602e-04 1.372755e-04 1.083846e-04 -1.221714e-04 -5.310500e-04 -7.792261e-04
          -8.348475e-04 -8.383170e-04 -8.312114e-04 -8.286854e-04 -8.257021e-04 -7.732958e-04
          -5.689765e-04 -5.678677e-04 -5.626904e-04 -5.589417e-04 -5.434749e-04 -4.946176e-04
          -3.794213e-04 -2.093387e-04 -3.660798e-04 -5.820846e-04 -6.253425e-04 -5.412993e-04
          -7.456042e-05 2.071494e-04 2.500931e-04 2.676950e-04 3.902492e-04 5.126743e-04
          5.216220e-04 5.120136e-04 4.472072e-04 2.577930e-04 2.768927e-04 2.803761e-04
          2.918280e-04 5.255684e-04 5.626697e-04 5.625929e-04 5.573196e-04 5.374532e-04
          4.055321e-04 2.937953e-04 2.865115e-04 2.815858e-04 2.641786e-04 2.455503e-04
          2.523999e-04 2.677242e-04 2.881868e-04 2.216489e-04 -3.165461e-04 -6.278858e-04
          -6.700132e-04 -6.754250e-04 -6.694356e-04 -6.611305e-04 -6.508097e-04 -5.481346e-04
          -8.179427e-04 -8.241083e-04 -8.262604e-04 -8.200930e-04 -7.963611e-04 -7.249339e-04
          -4.664854e-04 -1.676457e-05 -1.327506e-04 -3.434686e-04 -3.904655e-04 -3.080434e-04
          1.398400e-04 4.016262e-04 4.394679e-04 4.511238e-04 5.907289e-04 7.514470e-04
          7.663105e-04 7.560734e-04 6.939201e-04 4.563914e-04 4.777820e-04 4.821315e-04
          4.965329e-04 7.851931e-04 8.241947e-04 8.204326e-04 8.094656e-04 7.796448e-04
          6.259422e-04 4.903718e-04 4.795760e-04 4.735761e-04 4.483507e-04 4.121338e-04