<?xml version="1.0"?>
<VTKFile type="RectilinearGrid" version="0.1" byte_order="LittleEndian">
  <RectilinearGrid WholeExtent="0 47 0 47 0 47">
    <Piece Extent="0 47 0 47 0 47">
      <PointData Scalars="concentration">
        <DataArray type="Float32" Name="concentration" NumberOfComponents="1" format="ascii">
          2.461478e-04 2.723181e-04 2.816692e-04 2.706990e-04 2.574071e-04 2.290204e-04
          1.664741e-04 -5.196350e-05 -4.343838e-05 -7.683740e-06 1.264023e-05 1.497724e-05
          5.889791e-05 1.060395e-04 8.130336e-05 3.954518e-05 -5.552669e-05 -2.095141e-04
          -2.278399e-04 -2.215902e-04 -1.795855e-04 9.541892e-05 9.615443e-05 9.313281e-05
          7.769252e-05 -2.222013e-04 -2.530199e-04 -2.447189e-04 -2.262732e-04 -1.884836e-04
          -6.027639e-05 5.397698e-05 5.915306e-05 6.535336e-05 7.994140e-05 9.501739e-05
          1.010103e-04 1.202591e-04 9.687752e-05 -1.054995e-04 -1.674756e-05 3.248882e-05
          2.572574e-05 3.403199e-05 3.767535e-05 3.018258e-05 2.052830e-05 -2.572976e-05
          1.756674e-04 2.011317e-04 2.103870e-04 1.998599e-04 1.884046e-04 1.655251e-04
          1.229054e-04 -5.748954e-05 -5.969645e-05 -4.305261e-05 -2.706969e-05 -1.886035e-05
          5.594247e-05 1.205148e-04 9.894682e-05 5.947980e-05 -1.474505e-05 -1.455295e-04
          -1.616535e-04 -1.564452e-04 -1.237526e-04 1.146429e-04 1.159737e-04 1.133076e-04
          9.991781e-05 -1.575403e-04 -1.824900e-04 -1.745248e-04 -1.574704e-04 -1.238624e-04
          -1.839720e-05 7.612653e-05 7.995124e-05 8.558761e-05 9.830557e-05 1.111272e-04
          1.174204e-04 1.383543e-04 1.198441e-04 -7.667230e-05 -3.129074e-05 -8.448103e-06
          -1.815336e-05 -1.047268e-05 -6.582397e-06 -1.322216e-05 -2.176484e-05 -5.796946e-05
          2.875833e-05 2.461614e-04 3.215055e-04 2.148241e-04 1.137259e-04 -3.984034e-05
          1.675006e-04 -8.024308e-05 -5.350277e-05 -9.703462e-05 -2.772740e-06 -1.344945e-05
          1.054978e-04 2.860674e-04 2.820055e-05 -2.822441e-04 1.298216e-04 1.098222e-04
          7.820315e-05 1.083155e-04 -2.293279e-05 2.775227e-04 1.708186e-04 1.476496e-04
          1.268031e-04 -1.582975e-04 -8.890541e-05 -2.826944e-05 7.269638e-05 1.761060e-04
          -4.855289e-06 -1.349310e-04 -1.729517e-04 -1.248721e-04 -8.632918e-06 1.196294e-04
          2.110385e-04 4.860374e-04 6.121948e-04 -4.474220e-04 1.730146e-04 2.012935e-04
          6.935776e-05 1.177097e-04 1.385236e-04 7.772340e-05 3.660514e-06 -2.275157e-04
          3.120516e-05 -1.391507e-04 -1.981962e-04 -1.113639e-04 -2.698496e-05 1.015527e-04
          -8.672909e-05 1.196770e-05 -3.454415e-05 -1.135998e-05 -8.712665e-05 -4.980863e-05
          2.783195e-05 -2.770151e-06 2.158587e-04 4.537867e-04 -6.134433e-06 -1.332655e-04
          -1.224229e-04 -1.454798e-04 1.079814e-05 8.260128e-06 1.145212e-04 1.334824e-04
          1.374452e-04 1.102019e-04 1.815984e-05 -2.863100e-05 -1.022884e-04 -1.595142e-04
          1.238653e-04 3.478045e-04 3.863075e-04 3.476966e-04 2.506947e-04 1.393665e-04
          6.004526e-05 -1.647333e-04 -3.011271e-04 4.220213e-04 -2.107927e-04 -2.619558e-04
          -1.542024e-04 -1.891704e-04 -2.020947e-04 -1.520789e-04 -9.180691e-05 9.805356e-05
          -1.991794e-05 1.347302e-04 1.882057e-04 1.128292e-04 4.241444e-05 -6.230122e-05
          9.825272e-05 -6.019411e-05 -4.883096e-05 -9.166878e-05 -2.705723e-05 -2.791131e-05
          9.484636e-05 2.467579e-04 6.616784e-05 -1.551463e-04 1.339606e-04 1.157805e-04
          9.285555e-05 1.138458e-04 2.175808e-05 2.438463e-04 1.709267e-04 1.547301e-04
          1.394848e-04 -7.041251e-05 -2.232604e-05 2.074657e-05 9.271717e-05 1.668467e-04
          4.212322e-05 -4.708596e-05 -7.401444e-05 -4.021113e-05 4.078741e-05 1.292278e-04
          1.932795e-04 3.895652e-04 4.779880e-04 -2.872736e-04 1.125711e-04 1.150834e-04
          2.048584e-05 5.508768e-05 7.059728e-05 2.798090e-05 -2.400657e-05 -1.820557e-04
          4.008985e-05 1.971602e-04 2.515084e-04 1.749551e-04 1.022031e-04 -8.360042e-06
          1.343565e-04 -6.356262e-05 -4.572509e-05 -7.531189e-05 -6.705156e-06 -1.163506e-05
          9.154710e-05 2.336767e-04 4.912383e-05 -1.760711e-04 9.946059e-05 6.192064e-05
          3.686490e-05 5.888194e-05 -2.715395e-05 2.271653e-04 1.531016e-04 1.364493e-04
          1.193515e-04 -1.272316e-04 -8.325312e-05 -3.932432e-05 3.467438e-05 1.131424e-04
          5.318073e-06 -6.886367e-05 -9.490782e-05 -6.030567e-05 2.314897e-05 1.147129e-04
          1.795857e-04 3.766064e-04 4.617836e-04 -3.183741e-04 1.176015e-04 1.387772e-04
          4.467782e-05 8.004967e-05 9.555706e-05 5.180223e-05 -1.615650e-06 -1.690426e-04
          1.993071e-04 -2.223307e-05 -9.869424e-05 1.380497e-05 1.193537e-04 2.735757e-04
          -2.715817e-05 7.299554e-06 -3.532565e-05 3.189458e-05 -5.871772e-05 -2.492823e-05
          -4.613887e-06 -9.196492e-05 1.876398e-04 4.977173e-04 -1.270411e-04 -3.208949e-04
          -3.094050e-04 -3.377497e-04 -1.235317e-04 -8.757364e-05 4.717514e-05 7.119440e-05
          7.401671e-05 -1.017370e-05 -1.366558e-04 -1.970917e-04 -2.913232e-04 -3.609938e-04
          3.520532e-05 3.509561e-04 4.032856e-04 3.538678e-04 2.318489e-04 9.387879e-05
          -8.058322e-06 -3.056125e-04 -4.898051e-04 4.590564e-04 -2.643995e-04 -2.796975e-04
          -1.359825e-04 -1.815332e-04 -1.995389e-04 -1.360911e-04 -5.960294e-05 1.681584e-04
          1.509488e-04 4.718328e-04 5.833958e-04 4.249342e-04 2.712767e-04 3.280758e-05
          3.000625e-04 -1.183263e-04 -6.120635e-05 -9.646809e-05 4.880171e-05 1.544200e-05
          9.166649e-05 2.972845e-04 -9.027201e-05 -5.460568e-04 7.591530e-05 6.008201e-05
          1.484740e-05 6.028292e-05 -1.387365e-04 2.763621e-04 1.108814e-04 7.605274e-05
          4.655877e-05 -3.484791e-04 -2.417771e-04 -1.520929e-04 -3.201108e-06 1.470971e-04
          -1.343146e-04 -3.380050e-04 -3.944800e-04 -3.227650e-04 -1.466878e-04 5.063331e-05
          1.886163e-04 5.926048e-04 7.826798e-04 -7.491718e-04 2.741125e-04 3.590176e-04
          1.652604e-04 2.356888e-04 2.647337e-04 1.732158e-04 6.200677e-05 -2.950885e-04
          2.068071e-04 1.746958e-04 1.640151e-04 1.816836e-04 1.959676e-04 2.105572e-04
          9.900303e-05 -3.863690e-05 -4.351420e-05 -6.378079e-06 -1.343994e-05 -6.199810e-06
          1.603071e-05 2.024525e-05 6.583584e-05 1.089887e-04 -7.967850e-05 -2.107902e-04
          -2.190473e-04 -2.214391e-04 -1.518228e-04 1.423024e-05 4.280079e-05 4.614827e-05
          3.776590e-05 -1.534938e-04 -1.982052e-04 -2.061321e-04 -2.155165e-04 -2.084321e-04
          -4.959665e-05 8.424361e-05 9.865770e-05 9.172988e-05 7.465712e-05 5.532337e-05
          3.775402e-05 -1.543660e-05 -6.874526e-05 1.872400e-05 -7.501343e-05 -4.710592e-05
          -2.112402e-05 -2.632835e-05 -2.824113e-05 -1.922587e-05 -8.595352e-06 1.178123e-05
          1.115832e-04 1.393261e-04 1.488586e-04 1.360973e-04 1.228732e-04 9.901863e-05
          8.823731e-05 -2.449783e-05 -1.702840e-05 -2.890211e-06 1.340221e-05 1.345925e-05
          4.056163e-05 7.408616e-05 4.376481e-05 1.778572e-06 -1.242972e-05 -8.469293e-05
          -9.535878e-05 -9.024594e-05 -7.999744e-05 6.859465e-05 6.119200e-05 5.816674e-05
          4.946426e-05 -1.094581e-04 -1.188946e-04 -1.105934e-04 -9.494786e-05 -7.015649e-05
          -2.393860e-05 1.933944e-05 1.896751e-05 2.532713e-05 4.029802e-05 5.622603e-05
          6.522705e-05 9.409837e-05 9.262199e-05 -7.637065e-05 1.044072e-05 3.665821e-05
          2.453581e-05 3.196255e-05 3.516399e-05 2.728325e-05 1.751311e-05 -2.071008e-05
          -1.634101e-05 1.855493e-05 2.972122e-05 1.247728e-05 -2.891928e-06 -2.549480e-05
          2.682091e-05 1.914926e-05 3.249459e-05 3.093372e-05 4.697452e-05 4.472361e-05
          6.068963e-05 8.743277e-05 4.394854e-05 -9.161856e-06 4.947579e-05 3.953459e-05
          3.403793e-05 3.928969e-05 2.322258e-05 8.576732e-05 6.939512e-05 6.571878e-05
          6.154925e-05 3.174749e-07 8.534964e-06 1.830750e-05 3.443904e-05 5.206952e-05
          3.154258e-05 1.719178e-05 1.114061e-05 1.905749e-05 3.707088e-05 5.536594e-05
          6.776656e-05 1.128379e-04 1.325352e-04 -4.021635e-05 6.188132e-05 7.512054e-05
          5.768832e-05 6.639411e-05 6.995549e-05 6.017196e-05 4.818183e-05 9.539226e-06
          -8.159366e-05 -7.907185e-05 -8.013649e-05 -8.201265e-05 -8.157711e-05 -7.781446e-05
          -2.077863e-05 7.594177e-05 9.570300e-05 1.014024e-04 1.032495e-04 1.004113e-04
          8.506302e-05 7.512126e-05 6.592156e-05 5.587517e-05 7.022401e-05 8.225586e-05
          8.352422e-05 8.435506e-05 8.336808e-05 7.544254e-05 7.310408e-05 7.287144e-05
          7.323985e-05 8.323863e-05 8.488343e-05 8.528261e-05 8.539292e-05 8.439207e-05
          7.408530e-05 6.371260e-05 6.161640e-05 6.254330e-05 6.274788e-05 5.971304e-05
          5.699899e-05 6.455305e-05 7.171441e-05 6.767579e-05 8.353274e-05 9.690904e-05
          1.020185e-04 1.041618e-04 1.046092e-04 1.037972e-04 1.026535e-04 9.899785e-05
          -9.255904e-05 -1.070368e-04 -1.146837e-04 -1.084830e-04 -1.001172e-04 -8.383008e-05
          -2.891709e-05 1.125601e-04 1.405871e-04 1.579473e-04 1.539451e-04 1.492152e-04
          1.093539e-04 7.576130e-05 8.362861e-05 9.491423e-05 7.341646e-05 8.399305e-05
          8.762752e-05 8.655066e-05 9.917825e-05 7.539096e-05 8.097632e-05 8.244110e-05
          8.407592e-05 1.075315e-04 1.021842e-04 9.763155e-05 8.989756e-05 8.130509e-05
          8.970730e-05 9.280387e-05 9.349409e-05 9.093530e-05 8.213813e-05 6.790520e-05
          5.651107e-05 4.340700e-05 4.109995e-05 1.215661e-04 1.045476e-04 1.285459e-04
          1.475184e-04 1.466472e-04 1.454450e-04 1.491518e-04 1.533884e-04 1.645864e-04
          -9.295464e-05 -4.017293e-05 -2.429724e-05 -5.201501e-05 -7.650007e-05 -1.105272e-04
          1.150708e-05 9.543959e-05 1.371572e-04 1.433293e-04 1.689052e-04 1.529221e-04
          1.029826e-04 9.488453e-05 1.880022e-05 -6.388455e-05 8.086072e-05 1.254034e-04
          1.231234e-04 1.311600e-04 8.767674e-05 9.067719e-05 5.685967e-05 5.090840e-05
          4.963399e-05 5.604147e-05 8.299407e-05 9.701019e-05 1.190172e-04 1.357821e-04
          4.800990e-05 -2.360485e-05 -3.704847e-05 -2.448884e-05 4.466672e-06 3.337323e-05
          5.282286e-05 1.271313e-04 1.742134e-04 -4.330048e-05 1.722097e-04 2.116778e-04
          1.879368e-04 2.010539e-04 2.052885e-04 1.895325e-04 1.702677e-04 1.076560e-04
          -3.174469e-05 -1.024124e-04 -1.285306e-04 -9.486884e-05 -6.210289e-05 -1.197157e-05
          -4.557029e-05 1.000749e-04 1.178179e-04 1.523796e-04 1.254991e-04 1.200679e-04
          3.062529e-05 -6.040653e-05 1.502876e-05 1.097615e-04 -2.134918e-05 -1.008601e-05
          1.124191e-06 -7.592471e-06 3.843105e-05 -6.103813e-05 -2.932785e-05 -2.211055e-05
          -1.520729e-05 7.791912e-05 5.470627e-05 3.472002e-05 1.306711e-06 -3.309229e-05
          2.462308e-05 6.445125e-05 7.575905e-05 6.090016e-05 2.377841e-05 -1.959525e-05
          -5.228081e-05 -1.390416e-04 -1.760268e-04 1.817432e-04 2.975491e-05 5.340497e-05
          1.040421e-04 8.985178e-05 8.265823e-05 1.017036e-04 1.247505e-04 1.914029e-04
          -5.519567e-05 4.337798e-05 7.627776e-05 2.522928e-05 -2.317440e-05 -9.597926e-05
          4.564175e-05 5.053707e-05 9.559697e-05 9.316444e-05 1.388971e-04 1.119244e-04
          3.578569e-05 3.306324e-05 -9.941873e-05 -2.417229e-04 3.213331e-05 1.151874e-04
          1.101697e-04 1.241301e-04 3.397039e-05 2.530870e-05 -3.838887e-05 -4.953485e-05
          -5.123635e-05 -2.488818e-05 2.932304e-05 5.617707e-05 9.801432e-05 1.295801e-04
          -4.102481e-05 -1.775376e-04 -2.010224e-04 -1.781693e-04 -1.219554e-04 -5.944759e-05
          -1.581542e-05 1.170369e-04 2.004590e-04 -2.071612e-04 1.866726e-04 2.352036e-04
          1.781533e-04 1.994939e-04 2.067212e-04 1.774126e-04 1.419863e-04 2.791125e-05
          -6.534758e-05 -1.224312e-04 -1.433731e-04 -1.165812e-04 -9.000266e-05 -4.838008e-05
          -6.496502e-05 7.886940e-05 8.960889e-05 1.080445e-04 8.432135e-05 7.916278e-05
          6.428949e-07 -7.820494e-05 -1.780001e-05 6.080002e-05 -1.403109e-05 2.731071e-05
          3.942599e-05 3.180077e-05 5.593808e-05 -7.672511e-05 -5.416717e-05 -4.825039e-05
          -3.989541e-05 9.325732e-05 8.309128e-05 6.696212e-05 3.853206e-05 5.349178e-06
          1.950268e-05 2.374833e-05 3.097996e-05 1.886059e-05 -1.102993e-05 -4.514752e-05
          -6.989814e-05 -1.375594e-04 -1.596281e-04 1.457458e-04 2.069476e-05 2.859273e-05
          6.650014e-05 5.418519e-05 4.805586e-05 6.352634e-05 8.232520e-05 1.400622e-04
          -8.462949e-05 -1.282882e-04 -1.448288e-04 -1.243605e-04 -1.032011e-04 -6.874045e-05
          -6.475439e-05 7.559713e-05 8.548604e-05 9.618843e-05 7.723597e-05 7.431943e-05
          1.938695e-05 -3.845442e-05 7.172419e-06 6.629138e-05 1.518631e-05 5.382928e-05
          6.387859e-05 5.797124e-05 7.469858e-05 -3.602450e-05 -1.873060e-05 -1.405128e-05
          -7.240331e-06 1.055850e-04 9.895881e-05 8.668701e-05 6.443777e-05 3.774347e-05
          4.241885e-05 3.991989e-05 4.485944e-05 3.552173e-05 1.192993e-05 -1.569187e-05
          -3.549849e-05 -8.575846e-05 -1.004672e-04 1.349871e-04 2.992953e-05 3.235284e-05
          6.207125e-05 5.286318e-05 4.838709e-05 6.037419e-05 7.492155e-05 1.212204e-04
          -1.391713e-04 1.257791e-04 2.158544e-04 8.233960e-05 -4.304837e-05 -2.291396e-04
          1.113035e-04 1.466663e-05 8.110075e-05 2.992631e-05 1.443893e-04 1.061018e-04
          9.908559e-05 2.177501e-04 -1.157701e-04 -4.938485e-04 1.604133e-04 2.966754e-04
          2.741490e-04 3.101602e-04 9.393834e-05 2.071013e-04 5.516018e-05 2.648972e-05
          1.448956e-05 -5.745733e-05 6.712682e-05 1.401943e-04 2.563680e-04 3.553673e-04
          -2.116737e-05 -3.158195e-04 -3.727632e-04 -3.133185e-04 -1.682777e-04 -7.239482e-06
          1.082295e-04 4.578276e-04 6.553950e-04 -5.265527e-04 3.442539e-04 3.986917e-04
          2.374076e-04 2.946211e-04 3.173107e-04 2.414100e-04 1.494239e-04 -1.346142e-04
          -4.971657e-05 -1.735014e-04 -2.179624e-04 -1.572351e-04 -9.797789e-05 -6.616644e-06
          -9.467512e-05 9.472149e-05 9.258300e-05 1.249688e-04 7.255712e-05 7.931074e-05
          1.569600e-05 -8.485738e-05 5.945920e-05 2.307628e-04 -2.190531e-05 -2.756996e-05
          -1.082994e-05 -2.726109e-05 5.780492e-05 -8.013898e-05 -1.706057e-05 -3.709012e-06
          6.270478e-06 1.329169e-04 8.699885e-05 5.265326e-05 -4.757544e-06 -6.100185e-05
          6.190837e-05 1.517408e-04 1.738766e-04 1.467190e-04 7.918007e-05 1.878151e-06
          -5.423145e-05 -2.096430e-04 -2.840463e-04 3.100142e-04 -4.756511e-05 -5.182993e-05
          2.946936e-05 3.532094e-06 -7.744149e-06 2.701168e-05 6.910208e-05 1.989669e-04
          -2.943410e-05 -4.648189e-05 -5.435152e-05 -4.715351e-05 -4.013503e-05 -2.889402e-05
          -8.762833e-06 8.840711e-05 1.171749e-04 1.434719e-04 1.402859e-04 1.278822e-04
          4.190374e-05 -2.121941e-05 -1.169583e-05 7.444044e-06 -4.263306e-06 2.098385e-05
          2.630272e-05 2.491651e-05 3.174837e-05 -2.484128e-05 -2.254634e-05 -2.099402e-05
          -1.780684e-05 3.855259e-05 3.713416e-05 3.216082e-05 2.290885e-05 1.053606e-05
          5.129616e-06 -3.129510e-06 -2.252776e-06 -5.226904e-06 -1.298809e-05 -2.311130e-05
          -3.243402e-05 -5.037046e-05 -5.132448e-05 6.106748e-05 8.427279e-05 1.203959e-04
          1.382453e-04 1.354985e-04 1.331454e-04 1.367003e-04 1.410993e-04 1.492992e-04
          -1.655776e-05 3.223411e-05 4.690975e-05 2.101900e-05 -4.324457e-06 -4.273111e-05
          4.490490e-05 8.731426e-05 1.364367e-04 1.601387e-04 1.875424e-04 1.625556e-04
          5.836206e-05 1.554698e-05 -5.859444e-05 -1.334283e-04 4.891067e-06 5.072624e-05
          4.915215e-05 5.708619e-05 1.525013e-05 6.505771e-06 -2.908101e-05 -3.483759e-05
          -3.571450e-05 -2.030894e-05 6.087169e-06 1.918698e-05 3.959695e-05 5.404627e-05
          -3.191439e-05 -1.019161e-04 -1.142629e-04 -1.022812e-04 -7.302664e-05 -4.156605e-05
          -2.200607e-05 4.499186e-05 8.983879e-05 -9.316377e-05 1.692473e-04 2.321800e-04
          2.111155e-04 2.226963e-04 2.257853e-04 2.100150e-04 1.910754e-04 1.236711e-04
          3.134910e-05 -2.454949e-04 -3.433584e-04 -2.064360e-04 -7.638172e-05 1.198291e-04
          -1.446313e-04 1.484930e-04 1.343607e-04 2.192589e-04 1.050607e-04 1.211107e-04
          -1.226396e-05 -2.278192e-04 9.986266e-05 4.858000e-04 -1.294941e-04 -1.962808e-04
          -1.644377e-04 -2.008548e-04 6.725186e-06 -2.218627e-04 -7.664687e-05 -4.708330e-05
          -2.897776e-05 1.643466e-04 4.966687e-05 -2.728272e-05 -1.525438e-04 -2.691503e-04
          5.674490e-05 3.032533e-04 3.567372e-04 2.959696e-04 1.464121e-04 -2.271536e-05
          -1.466779e-04 -5.019308e-04 -6.836788e-04 6.191835e-04 -1.691314e-04 -1.678762e-04
          1.271135e-05 -4.553563e-05 -7.070519e-05 6.582819e-06 1.003992e-04 3.839737e-04
          -1.061378e-04 1.329652e-04 2.142804e-04 9.403860e-05 -1.988222e-05 -1.891584e-04
          1.112272e-04 1.193399e-05 7.356357e-05 3.184937e-05 1.360256e-04 1.001730e-04
          8.648385e-05 1.896283e-04 -1.118216e-04 -4.531033e-04 1.321556e-04 2.498087e-04
          2.289216e-04 2.614005e-04 6.845876e-05 1.786945e-04 4.153607e-05 1.557556e-05
          4.295725e-06 -7.010078e-05 4.116660e-05 1.067869e-04 2.121374e-04 3.022948e-04
          -3.212068e-05 -2.932205e-04 -3.442735e-04 -2.905653e-04 -1.593249e-04 -1.334756e-05
          9.099950e-05 4.055096e-04 5.825088e-04 -4.845341e-04 3.111595e-04 3.659963e-04
          2.210812e-04 2.728012e-04 2.932561e-04 2.243857e-04 1.411438e-04 -1.171761e-04
          -1.087401e-05 -2.255844e-05 -2.651415e-05 -2.074926e-05 -1.544100e-05 -7.102678e-06
          -1.810632e-05 -1.506352e-06 -5.537762e-06 -7.052456e-06 -1.297807e-05 -1.253571e-05
          -2.082326e-05 -3.206605e-05 -1.797490e-05 5.754583e-08 -1.088152e-05 1.870634e-06
          4.645215e-06 2.645718e-06 4.775833e-06 -3.094297e-05 -2.632947e-05 -2.499192e-05
          -2.291230e-05 1.403579e-05 1.353967e-05 1.025627e-05 4.319742e-06 -3.306206e-06
          -5.414717e-06 -8.519275e-06 -7.078128e-06 -9.736440e-06 -1.595233e-05 -2.214989e-05
          -2.619512e-05 -4.052038e-05 -4.468331e-05 1.858628e-05 -1.592866e-05 -2.241445e-05
          -1.683405e-05 -1.988765e-05 -2.107165e-05 -1.788240e-05 -1.382340e-05 2.250904e-07
          9.878322e-05 5.163944e-05 3.687395e-05 6.081078e-05 8.139768e-05 1.082176e-04
          1.889384e-06 -5.858770e-05 -8.126760e-05 -7.240556e-05 -9.258793e-05 -8.768472e-05
          -9.741740e-05 -1.244523e-04 -6.197523e-05 1.126715e-05 -1.026523e-04 -1.258112e-04
          -1.219195e-04 -1.286534e-04 -9.426502e-05 -1.240773e-04 -9.869780e-05 -9.354981e-05
          -9.112801e-05 -6.938569e-05 -8.960177e-05 -1.020165e-04 -1.227340e-04 -1.406307e-04
          -7.749901e-05 -2.720256e-05 -1.627944e-05 -2.695941e-05 -5.109562e-05 -7.456937e-05
          -9.157320e-05 -1.569748e-04 -1.937847e-04 2.196279e-05 -1.169769e-04 -1.291335e-04
          -1.055880e-04 -1.174127e-04 -1.219466e-04 -1.086896e-04 -9.247987e-05 -4.371751e-05
          5.302699e-05 2.049967e-04 2.589423e-04 1.834646e-04 1.097059e-04 -5.144174e-06
          1.101446e-04 -9.476832e-05 -8.096154e-05 -1.134843e-04 -4.794359e-05 -6.563174e-05
          -4.340050e-05 4.384588e-05 -1.384750e-04 -3.474478e-04 -2.760354e-06 4.078443e-05
          2.402295e-05 4.429432e-05 -7.288936e-05 3.621416e-05 -4.779614e-05 -6.413351e-05
          -7.353451e-05 -1.647547e-04 -9.942480e-05 -5.678620e-05 1.156192e-05 7.414418e-05
          -1.122175e-04 -2.535843e-04 -2.828498e-04 -2.491591e-04 -1.646366e-04 -6.668615e-05
          3.537960e-06 1.966507e-04 2.978515e-04 -3.996339e-04 8.854878e-05 1.082215e-04
          8.481847e-06 3.949934e-05 5.251156e-05 9.138334e-06 -4.335856e-05 -2.069720e-04
          1.179325e-04 5.465859e-06 -3.242357e-05 2.441939e-05 7.672724e-05 1.514550e-04
          -2.192305e-05 -3.178148e-05 -6.213901e-05 -3.456293e-05 -8.189217e-05 -6.758443e-05
          -7.530079e-05 -1.313917e-04 1.149754e-05 1.744417e-04 -1.134082e-04 -1.823073e-04
          -1.738064e-04 -1.889296e-04 -9.420497e-05 -1.289219e-04 -6.468098e-05 -5.240981e-05
          -4.829045e-05 -3.383556e-05 -8.905297e-05 -1.194739e-04 -1.686105e-04 -2.089987e-04
          -3.917646e-05 9.490657e-05 1.202436e-04 9.505789e-05 3.450040e-05 -3.115563e-05
          -7.909700e-05 -2.301541e-04 -3.176125e-04 1.834743e-04 -1.696673e-04 -1.860943e-04
          -1.187408e-04 -1.436618e-04 -1.534502e-04 -1.214477e-04 -8.272209e-05 3.430142e-05
          1.159885e-04 2.637363e-04 3.159134e-04 2.428688e-04 1.705339e-04 5.589176e-05
          1.501863e-04 -8.761389e-05 -6.644658e-05 -8.160865e-05 -1.440302e-05 -3.323574e-05
          -1.841800e-05 6.400003e-05 -1.136726e-04 -3.192423e-04 -2.177050e-05 -1.849791e-05
          -3.843474e-05 -1.777818e-05 -1.157337e-04 5.289501e-05 -2.604775e-05 -4.209684e-05
          -5.463525e-05 -2.133811e-04 -1.603384e-04 -1.187454e-04 -5.059708e-05 1.674577e-05
          -1.250796e-04 -2.286610e-04 -2.547516e-04 -2.217276e-04 -1.390869e-04 -4.398596e-05
          2.244140e-05 2.069381e-04 2.959760e-04 -3.980456e-04 9.516730e-05 1.352596e-04
          4.244376e-05 7.356389e-05 8.639544e-05 4.389212e-05 -7.642049e-06 -1.740353e-04
          1.157845e-04 5.527152e-05 3.498491e-05 6.594646e-05 9.366607e-05 1.314313e-04
          1.836445e-05 -2.768307e-05 -4.302859e-05 -1.965709e-05 -4.324673e-05 -3.539599e-05
          -3.704343e-05 -6.425507e-05 1.380386e-05 1.010056e-04 -8.094380e-05 -1.464232e-04
          -1.445810e-04 -1.522243e-04 -9.057565e-05 -6.504697e-05 -2.816652e-05 -2.160808e-05
          -2.182997e-05 -6.342726e-05 -1.004090e-04 -1.165539e-04 -1.417906e-04 -1.588106e-04
          -3.944409e-05 5.701913e-05 7.255203e-05 5.907499e-05 2.676746e-05 -8.173089e-06
          -3.469408e-05 -1.188386e-04 -1.732047e-04 8.336311e-05 -1.004790e-04 -9.958993e-05
          -6.181339e-05 -7.485410e-05 -7.995389e-05 -6.285623e-05 -4.220914e-05 1.678668e-05
          -2.483270e-05 4.109402e-05 6.345059e-05 3.112916e-05 1.353833e-06 -4.242628e-05
          3.718611e-05 -9.042539e-06 4.119452e-07 -1.600662e-05 1.174243e-05 1.017713e-05
          5.516595e-05 1.149732e-04 3.637269e-05 -5.915249e-05 6.831638e-05 6.546783e-05
          5.628683e-05 6.530266e-05 2.534592e-05 1.136336e-04 8.184672e-05 7.497605e-05
          6.879263e-05 -1.371090e-05 7.590750e-06 2.591198e-05 5.618379e-05 8.688717e-05
          2.976206e-05 -1.211054e-05 -2.407254e-05 -9.552603e-06 2.488515e-05 6.191356e-05
          8.857856e-05 1.732422e-04 2.127397e-04 -1.096231e-04 6.614236e-05 7.087131e-05
          3.190254e-05 4.688302e-05 5.349971e-05 3.526736e-05 1.294940e-05 -5.493234e-05
          -1.232441e-04 -6.401868e-05 -4.492944e-05 -7.397919e-05 -9.823956e-05 -1.292144e-04
          -8.732004e-06 3.290348e-05 4.328791e-05 1.703574e-05 3.931958e-05 4.370431e-05
          1.161322e-04 1.883131e-04 1.169544e-04 2.693021e-05 1.489431e-04 1.554838e-04
          1.482448e-04 1.560437e-04 1.191780e-04 1.912410e-04 1.647581e-04 1.587896e-04
          1.538369e-04 9.054569e-05 1.106962e-04 1.266639e-04 1.533131e-04 1.794072e-04
          1.211903e-04 7.655896e-05 6.449872e-05 7.736138e-05 1.059033e-04 1.335444e-04
          1.547219e-04 2.346886e-04 2.736432e-04 -2.164024e-05 9.469911e-05 8.456483e-05
          5.193681e-05 6.648398e-05 7.315427e-05 5.747133e-05 3.806696e-05 -1.568005e-05
          -1.581337e-04 -1.964617e-04 -2.109021e-04 -1.914786e-04 -1.687760e-04 -1.271630e-04
          -9.684356e-05 5.208396e-05 3.912329e-05 2.004359e-05 -2.416352e-06 1.515341e-05
          8.233020e-05 1.035795e-04 1.524651e-04 2.017346e-04 1.252329e-04 1.263253e-04
          1.317371e-04 1.256344e-04 1.521048e-04 1.135721e-04 1.392458e-04 1.438866e-04
          1.471203e-04 1.872766e-04 1.727024e-04 1.614733e-04 1.433828e-04 1.255996e-04
          1.623328e-04 1.880652e-04 1.939452e-04 1.848512e-04 1.595017e-04 1.269478e-04
          1.063213e-04 6.236555e-05 4.036043e-05 2.017486e-04 -8.643930e-06 -5.115938e-05
          -2.600872e-05 -3.292195e-05 -3.489700e-05 -2.250294e-05 -7.759748e-06 4.862149e-05
          -1.783878e-04 -1.748592e-04 -1.740347e-04 -1.757692e-04 -1.734491e-04 -1.625841e-04
          -9.241891e-05 2.071008e-05 6.995222e-06 -3.055076e-05 -3.687562e-05 -2.454832e-05
          4.516512e-05 8.700269e-05 8.544407e-05 7.915450e-05 1.261004e-04 1.685270e-04
          1.720201e-04 1.709221e-04 1.528761e-04 9.683004e-05 9.669161e-05 9.678924e-05
          1.000718e-04 1.678922e-04 1.793726e-04 1.797074e-04 1.793856e-04 1.740828e-04
          1.296078e-04 9.091682e-05 8.698187e-05 8.705947e-05 8.514216e-05 8.050690e-05
          8.101941e-05 9.238075e-05 1.052903e-04 8.848132e-05 8.806815e-06 -3.992673e-05
          -4.543825e-05 -4.455154e-05 -4.331572e-05 -4.280556e-05 -4.226203e-05 -2.712859e-05
          -1.601091e-04 -2.230230e-05 2.562568e-05 -4.306840e-05 -1.055887e-04 -1.942094e-04
          -1.394432e-06 -3.221832e-05 -2.568362e-05 -8.854341e-05 -3.630195e-05 -4.081035e-05
          4.199006e-05 1.563968e-04 -8.910499e-06 -2.028494e-04 1.501645e-04 2.332965e-04
          2.223079e-04 2.394233e-04 1.188851e-04 1.593537e-04 8.480775e-05 7.029493e-05
          6.541813e-05 5.282896e-05 1.218466e-04 1.594801e-04 2.196310e-04 2.693884e-04
          5.934244e-05 -1.055317e-04 -1.359069e-04 -1.058997e-04 -3.344962e-05 4.663974e-05
          1.077434e-04 2.913808e-04 3.953845e-04 -2.363520e-04 1.200465e-04 9.508344e-05
          4.248589e-06 3.335404e-05 4.608541e-05 8.181521e-06 -3.776627e-05 -1.681210e-04
          -3.029729e-06 -1.224609e-04 -1.631328e-04 -1.029773e-04 -4.487840e-05 4.408659e-05
          -8.492733e-05 3.856853e-07 -3.542142e-05 -2.642322e-05 -8.096502e-05 -5.852129e-05
          -2.670748e-05 -6.353155e-05 8.806956e-05 2.578743e-04 -2.434221e-05 -7.236352e-05
          -6.096974e-05 -7.773356e-05 1.464200e-05 -5.490728e-05 1.457874e-05 2.765165e-05
          3.424369e-05 8.918791e-05 3.626994e-05 3.107471e-06 -4.986178e-05 -9.658421e-05
          6.004376e-05 1.813098e-04 2.058863e-04 1.788198e-04 1.119721e-04 3.668531e-05
          -1.581901e-05 -1.708947e-04 -2.565780e-04 2.741163e-04 -1.546031e-04 -1.981722e-04
          -1.267329e-04 -1.524252e-04 -1.622997e-04 -1.274281e-04 -8.526866e-05 4.993330e-05
          -6.786298e-06 2.438215e-04 3.313524e-04 2.072306e-04 8.874741e-05 -9.023256e-05
          1.583035e-04 -9.109412e-05 -5.968373e-05 -1.164848e-04 -9.189760e-06 -2.963999e-05
          5.856108e-05 2.342297e-04 -6.744720e-05 -4.214526e-04 1.179130e-04 1.612085e-04
          1.310108e-04 1.649259e-04 -1.296568e-05 2.247688e-04 9.306379e-05 6.603663e-05
          4.798110e-05 -1.624248e-04 -6.418111e-05 5.114692e-06 1.193226e-04 2.276382e-04
          -4.796349e-05 -2.551477e-04 -3.029719e-04 -2.474624e-04 -1.114543e-04 4.074782e-05
          1.504820e-04 4.717092e-04 6.337070e-04 -5.461053e-04 2.055391e-04 2.336203e-04
          7.667641e-05 1.307377e-04 1.534577e-04 8.275778e-05 -3.082991e-06 -2.682130e-04
          -1.665961e-05 -1.579703e-05 -1.553127e-05 -1.422336e-05 -1.101753e-05 -3.653211e-06
          1.619725e-06 -1.955584e-05 -3.624789e-05 -5.093022e-05 -5.339639e-05 -3.460345e-05
          7.616835e-05 1.473816e-04 1.556019e-04 1.505482e-04 8.649871e-05 1.802491e-05
          1.117237e-05 1.124598e-05 3.645246e-05 1.519536e-04 1.644250e-04 1.647966e-04
          1.588776e-04 3.634126e-05 1.847543e-05 1.868641e-05 2.186112e-05 3.380091e-05
          1.011267e-04 1.590847e-04 1.627800e-04 1.622924e-04 1.586806e-04 1.513595e-04
          1.472093e-04 1.451429e-04 1.277225e-04 6.387546e-05 -3.556796e-05 -6.274621e-05
          -6.132184e-05 -5.938331e-05 -5.721053e-05 -5.577112e-05 -5.452502e-05 -4.621079e-05
          -1.262228e-04 -1.078845e-04 -1.018286e-04 -1.094897e-04 -1.125890e-04 -1.109874e-04
          -4.967212e-05 -1.373658e-05 -3.550249e-05 -7.619887e-05 -7.599696e-05 -5.430358e-05
          8.392552e-05 1.780492e-04 1.656146e-04 1.368182e-04 1.517375e-04 1.299210e-04
          1.251676e-04 1.264927e-04 1.227055e-04 1.876511e-04 1.890637e-04 1.879456e-04
          1.843700e-04 1.235301e-04 1.234030e-04 1.283723e-04 1.372706e-04 1.493597e-04
          1.545976e-04 1.606222e-04 1.580938e-04 1.611041e-04 1.653566e-04 1.663719e-04
          1.704227e-04 1.956531e-04 2.004626e-04 6.852690e-05 -1.642434e-05 -6.961414e-05
          -8.239170e-05 -7.730337e-05 -7.334086e-05 -7.613678e-05 -8.007685e-05 -7.948573e-05
          -1.590614e-04 -1.555402e-04 -1.546451e-04 -1.558697e-04 -1.528899e-04 -1.418786e-04
          -8.351765e-05 2.662310e-06 -1.698170e-05 -5.672004e-05 -6.353343e-05 -4.728091e-05
          4.508768e-05 1.017304e-04 1.032937e-04 9.765533e-05 1.265149e-04 1.499871e-04
          1.516485e-04 1.504966e-04 1.389934e-04 1.120745e-04 1.147391e-04 1.151178e-04
          1.166970e-04 1.529158e-04 1.595761e-04 1.603314e-04 1.604000e-04 1.580691e-04
          1.320961e-04 1.093689e-04 1.068151e-04 1.067268e-04 1.041751e-04 9.894869e-05
          9.895214e-05 1.083986e-04 1.158705e-04 8.582635e-05 -1.295584e-05 -6.708744e-05
          -7.299413e-05 -7.214586e-05 -7.042655e-05 -6.956710e-05 -6.876154e-05 -5.235058e-05
          -1.106679e-04 -1.249783e-04 -1.301129e-04 -1.227209e-04 -1.132239e-04 -9.445027e-05
          -7.306578e-05 3.396014e-06 -1.301502e-05 -3.796344e-05 -5.011047e-05 -3.916208e-05
          8.474816e-06 2.914327e-05 4.996095e-05 7.114193e-05 6.716482e-05 9.308382e-05
          9.742346e-05 9.412862e-05 9.281366e-05 3.690550e-05 4.581059e-05 4.789431e-05
          5.123559e-05 1.135702e-04 1.150721e-04 1.109736e-04 1.029259e-04 9.187693e-05
          7.952278e-05 6.678834e-05 6.759683e-05 6.379958e-05 5.333601e-05 4.083346e-05
          3.453222e-05 1.997148e-05 1.724206e-05 8.419053e-05 -2.636981e-05 -6.668241e-05