<?xml version="1.0"?>
<VTKFile type="RectilinearGrid" version="0.1" byte_order="LittleEndian">
  <RectilinearGrid WholeExtent="0 47 0 47 0 47">
    <Piece Extent="0 47 0 47 0 47">
      <PointData Scalars="concentration">
        <DataArray type="Float32" Name="concentration" NumberOfComponents="1" format="ascii">
          1.929954e-04 2.201051e-04 2.289024e-04 2.172312e-04 2.041287e-04 1.785965e-04
          1.460517e-04 -1.844954e-05 -3.062945e-06 3.138695e-05 5.156209e-05 5.315620e-05
          9.102253e-05 1.341490e-04 1.051826e-04 5.988662e-05 -1.933533e-05 -1.575008e-04
          -1.745864e-04 -1.684366e-04 -1.309105e-04 1.242062e-04 1.232708e-04 1.202041e-04
          1.059096e-04 -1.709835e-04 -1.985936e-04 -1.902624e-04 -1.721181e-04 -1.365704e-04
          -2.299551e-05 7.769043e-05 8.138776e-05 8.795147e-05 1.023709e-04 1.159617e-04
          1.211548e-04 1.444065e-04 1.266248e-04 -7.239479e-05 1.889388e-05 6.910195e-05
          6.355577e-05 7.274417e-05 7.655545e-05 6.859669e-05 5.848580e-05 1.282643e-05
          1.456506e-04 1.715987e-04 1.802155e-04 1.691345e-04 1.572964e-04 1.356536e-04
          1.148178e-04 -2.382713e-05 -1.606485e-05 5.193721e-06 2.213937e-05 2.709834e-05
          8.195291e-05 1.339840e-04 1.077593e-04 6.543659e-05 3.046110e-06 -1.152940e-04
          -1.303471e-04 -1.251082e-04 -9.519224e-05 1.272418e-04 1.264213e-04 1.236571e-04
          1.111995e-04 -1.286196e-04 -1.511814e-04 -1.433587e-04 -1.265369e-04 -9.486332e-05
          -3.494921e-07 8.383769e-05 8.648304e-05 9.253115e-05 1.055054e-04 1.176728e-04
          1.231856e-04 1.468713e-04 1.329142e-04 -5.606048e-05 6.947444e-06 3.894420e-05
          3.133213e-05 3.975529e-05 4.359461e-05 3.634804e-05 2.721476e-05 -1.090983e-05
          1.957069e-05 2.368138e-04 3.115546e-04 2.045403e-04 1.026793e-04 -5.115217e-05
          1.683713e-04 -5.171953e-05 -1.413875e-05 -4.945735e-05 4.633027e-05 3.052097e-05
          1.190010e-04 2.803424e-04 1.823419e-05 -2.936053e-04 1.284226e-04 1.198467e-04
          8.940709e-05 1.195436e-04 -1.400582e-05 2.699190e-04 1.606108e-04 1.373410e-04
          1.174402e-04 -1.503423e-04 -7.865858e-05 -1.834437e-05 8.224289e-05 1.836083e-04
          -7.178459e-06 -1.464158e-04 -1.853588e-04 -1.369479e-04 -2.014357e-05 1.083608e-04
          1.992975e-04 4.755904e-04 6.055940e-04 -4.412549e-04 2.073733e-04 2.495008e-04
          1.198681e-04 1.685974e-04 1.890870e-04 1.276853e-04 5.307883e-05 -1.814306e-04
          2.857225e-05 -1.424687e-04 -2.021303e-04 -1.154653e-04 -3.189525e-05 9.582654e-05
          -8.418362e-05 3.774162e-05 2.060781e-06 3.433844e-05 -3.990598e-05 -8.642440e-06
          3.312469e-05 -2.042777e-05 1.944098e-04 4.320997e-04 -1.651914e-05 -1.300188e-04
          -1.176376e-04 -1.407063e-04 1.253151e-05 -1.151583e-05 9.175279e-05 1.106304e-04
          1.158206e-04 1.108669e-04 2.175908e-05 -2.551192e-05 -9.984887e-05 -1.596706e-04
          1.118028e-04 3.249619e-04 3.625370e-04 3.241674e-04 2.277579e-04 1.170730e-04
          3.750170e-05 -1.867441e-04 -3.191114e-04 4.216147e-04 -1.789897e-04 -2.151696e-04
          -1.051527e-04 -1.400434e-04 -1.535447e-04 -1.039992e-04 -4.411465e-05 1.422796e-04
          -3.487404e-05 1.189456e-04 1.717531e-04 9.619408e-05 2.529167e-05 -7.949593e-05
          9.413828e-05 -3.173214e-05 -9.948896e-06 -4.570387e-05 1.991007e-05 1.341208e-05
          1.020882e-04 2.317847e-04 4.745757e-05 -1.740103e-04 1.304789e-04 1.304586e-04
          1.095132e-04 1.304118e-04 3.376058e-05 2.273684e-04 1.512623e-04 1.350149e-04
          1.214096e-04 -5.832949e-05 -6.236554e-06 3.629680e-05 1.072993e-04 1.780822e-04
          3.709080e-05 -6.667148e-05 -9.482622e-05 -6.081374e-05 2.052411e-05 1.092564e-04
          1.730247e-04 3.702425e-04 4.638389e-04 -2.818370e-04 1.463046e-04 1.612393e-04
          6.879244e-05 1.034154e-04 1.182780e-04 7.533334e-05 2.310305e-05 -1.372788e-04
          5.921633e-06 1.621163e-04 2.156559e-04 1.388340e-04 6.597448e-05 -4.351089e-05
          1.205783e-04 -2.896620e-05 -5.521213e-07 -2.550989e-05 4.345151e-05 3.325297e-05
          1.036612e-04 2.239526e-04 3.535497e-05 -1.902045e-04 1.071042e-04 9.463467e-05
          7.223064e-05 9.405574e-05 1.120624e-06 2.166975e-04 1.390848e-04 1.224148e-04
          1.075108e-04 -9.724147e-05 -4.769658e-05 -4.357168e-06 6.827884e-05 1.422619e-04
          1.160880e-05 -8.293729e-05 -1.106788e-04 -7.589805e-05 7.609167e-06 9.890681e-05
          1.634017e-04 3.621919e-04 4.544466e-04 -3.033293e-04 1.568128e-04 1.875381e-04
          9.553477e-05 1.309649e-04 1.458070e-04 1.017909e-04 4.822022e-05 -1.201708e-04
          1.586438e-04 -6.370971e-05 -1.411102e-04 -2.893298e-05 7.668707e-05 2.325404e-04
          -4.308981e-05 4.600995e-05 1.462363e-05 8.625847e-05 -4.101335e-06 2.466950e-05
          1.337275e-05 -9.509815e-05 1.802130e-04 4.894666e-04 -1.132990e-04 -2.817905e-04
          -2.676306e-04 -2.961327e-04 -8.875478e-05 -9.131328e-05 4.003722e-05 6.402822e-05
          6.901737e-05 2.664781e-05 -9.439854e-05 -1.554061e-04 -2.510291e-04 -3.252205e-04
          4.809698e-05 3.432908e-04 3.938572e-04 3.446175e-04 2.225438e-04 8.387581e-05
          -1.867662e-05 -3.141167e-04 -4.910112e-04 4.797299e-04 -2.211507e-04 -2.270378e-04
          -8.093374e-05 -1.262618e-04 -1.448538e-04 -8.170315e-05 -5.387247e-06 2.216337e-04
          1.207352e-04 4.410254e-04 5.516632e-04 3.928682e-04 2.391891e-04 2.017686e-06
          2.910881e-04 -8.096152e-05 -1.229867e-05 -4.133454e-05 1.046805e-04 6.669453e-05
          1.141239e-04 3.009279e-04 -9.086993e-05 -5.481113e-04 8.845059e-05 8.989241e-05
          4.648139e-05 9.190676e-05 -1.110013e-04 2.788995e-04 1.108077e-04 7.590208e-05
          4.785375e-05 -3.199673e-04 -2.099342e-04 -1.207151e-04 2.725100e-05 1.744311e-04
          -1.218937e-04 -3.393193e-04 -3.971024e-04 -3.251523e-04 -1.490383e-04 4.748171e-05
          1.845746e-04 5.903026e-04 7.857658e-04 -7.295545e-04 3.163018e-04 4.126747e-04
          2.217086e-04 2.925944e-04 3.212232e-04 2.293014e-04 1.178128e-04 -2.409870e-04
          1.875918e-04 1.549302e-04 1.434160e-04 1.607905e-04 1.748449e-04 1.901301e-04
          9.555342e-05 -5.165617e-06 1.223608e-06 4.583995e-05 3.985163e-05 4.238850e-05
          3.588030e-05 2.160371e-05 6.321952e-05 1.050256e-04 -7.308884e-05 -1.912898e-04
          -1.981482e-04 -2.005039e-04 -1.333555e-04 1.407910e-05 4.036001e-05 4.360199e-05
          3.629105e-05 -1.351324e-04 -1.775260e-04 -1.858874e-04 -1.959417e-04 -1.912497e-04
          -4.316425e-05 8.059833e-05 9.400918e-05 8.732434e-05 7.043099e-05 5.055948e-05
          3.215375e-05 -1.978224e-05 -6.891089e-05 3.304911e-05 -3.647105e-05 4.298250e-06
          3.307115e-05 2.832670e-05 2.605240e-05 3.459680e-05 4.488676e-05 6.285397e-05
          1.110524e-04 1.379400e-04 1.467479e-04 1.338538e-04 1.200263e-04 9.558525e-05
          9.252087e-05 1.505498e-06 1.981984e-05 4.356923e-05 6.131551e-05 5.569113e-05
          4.891545e-05 6.081346e-05 2.714603e-05 -1.508811e-05 -2.144508e-05 -8.326963e-05
          -9.267939e-05 -8.754707e-05 -7.911293e-05 5.313870e-05 4.336172e-05 4.021530e-05
          3.241101e-05 -1.097236e-04 -1.172699e-04 -1.094949e-04 -9.446535e-05 -7.181393e-05
          -3.401995e-05 1.352810e-06 3.106803e-07 6.823320e-06 2.226848e-05 3.841910e-05
          4.694453e-05 7.592970e-05 7.759091e-05 -7.497740e-05 4.212149e-05 8.370700e-05
          7.418037e-05 8.184413e-05 8.455128e-05 7.615326e-05 6.602921e-05 2.441785e-05
          6.134417e-06 3.976484e-05 5.043595e-05 3.330420e-05 1.694882e-05 -7.789541e-06
          3.939245e-05 3.191064e-05 5.399853e-05 6.326061e-05 8.092472e-05 7.235033e-05
          5.135306e-05 5.456007e-05 9.081270e-06 -4.252875e-05 2.080631e-05 1.838630e-05
          1.400060e-05 1.918078e-05 1.772148e-06 5.018830e-05 3.152353e-05 2.772003e-05
          2.426342e-05 -2.319859e-05 -1.346875e-05 -4.339363e-06 1.122455e-05 2.701565e-05
          5.922820e-07 -1.918095e-05 -2.544982e-05 -1.754821e-05 1.219225e-06 2.071478e-05
          3.325971e-05 7.689538e-05 9.833388e-05 -5.617812e-05 8.025387e-05 1.097416e-04
          9.422441e-05 1.027880e-04 1.056830e-04 9.541117e-05 8.314946e-05 4.053196e-05
          -6.008690e-05 -5.844326e-05 -5.954731e-05 -6.127314e-05 -6.162763e-05 -5.981711e-05
          -1.276543e-05 7.244368e-05 9.436235e-05 1.047827e-04 1.072267e-04 1.008845e-04
          6.520835e-05 4.220459e-05 3.297578e-05 2.509790e-05 4.348082e-05 6.122427e-05
          6.328998e-05 6.385463e-05 6.082148e-05 4.114450e-05 3.742887e-05 3.712236e-05
          3.803345e-05 5.993297e-05 6.307721e-05 6.302478e-05 6.278938e-05 6.047664e-05
          4.497600e-05 3.010479e-05 2.801233e-05 2.876614e-05 2.955423e-05 2.782742e-05
          2.588618e-05 3.203268e-05 4.001732e-05 4.788439e-05 8.247393e-05 1.026619e-04
          1.077603e-04 1.095904e-04 1.095410e-04 1.084406e-04 1.072152e-04 1.018217e-04
          -8.562719e-05 -9.992548e-05 -1.071220e-04 -1.008979e-04 -9.284569e-05 -7.729971e-05
          -3.113566e-05 9.461513e-05 1.169329e-04 1.298843e-04 1.250931e-04 1.215016e-04
          8.841880e-05 5.905638e-05 6.860648e-05 8.141589e-05 6.317755e-05 7.639308e-05
          8.020020e-05 7.869157e-05 8.880675e-05 5.939048e-05 6.504664e-05 6.651585e-05
          6.834367e-05 9.844559e-05 9.423853e-05 8.968705e-05 8.207442e-05 7.316863e-05
          7.799494e-05 7.823270e-05 7.905507e-05 7.623460e-05 6.766104e-05 5.424372e-05
          4.402610e-05 3.064737e-05 2.835337e-05 1.080987e-04 8.472842e-05 1.019710e-04
          1.187138e-04 1.176036e-04 1.163660e-04 1.199935e-04 1.242979e-04 1.369815e-04
          -8.820667e-05 -3.474234e-05 -1.826269e-05 -4.598044e-05 -7.061008e-05 -1.049803e-04
          7.980687e-06 7.223759e-05 1.055886e-04 1.046927e-04 1.291522e-04 1.161855e-04
          8.423602e-05 8.768908e-05 1.392777e-05 -6.775586e-05 7.705401e-05 1.199266e-04
          1.172954e-04 1.249318e-04 7.996770e-05 8.481871e-05 5.191622e-05 4.599386e-05
          4.447979e-05 4.984544e-05 7.698384e-05 9.123315e-05 1.136693e-04 1.310082e-04
          4.341084e-05 -2.776611e-05 -4.088340e-05 -2.857207e-05 4.779205e-07 2.994478e-05
          5.054367e-05 1.248920e-04 1.709410e-04 -5.404862e-05 1.456623e-04 1.741724e-04
          1.476104e-04 1.605868e-04 1.650611e-04 1.492852e-04 1.300800e-04 6.977316e-05
          -2.383499e-05 -9.370116e-05 -1.192830e-04 -8.559754e-05 -5.291577e-05 -3.113898e-06
          -4.627163e-05 7.767921e-05 8.752875e-05 1.159607e-04 8.817164e-05 8.594872e-05
          1.581180e-05 -6.262562e-05 1.511689e-05 1.104463e-04 -2.411730e-05 -1.831164e-05
          -7.812155e-06 -1.677614e-05 2.924565e-05 -6.210277e-05 -2.908425e-05 -2.183249e-05
          -1.554811e-05 6.962287e-05 4.556795e-05 2.591870e-05 -6.955297e-06 -4.016896e-05
          2.154310e-05 6.507357e-05 7.689215e-05 6.182929e-05 2.479806e-05 -1.818396e-05
          -4.997790e-05 -1.368303e-04 -1.757018e-04 1.722238e-04 4.151128e-06 1.796145e-05
          6.614919e-05 5.190353e-05 4.510493e-05 6.409291e-05 8.713659e-05 1.556435e-04
          -4.136463e-05 5.790803e-05 9.130206e-05 4.033778e-05 -8.220654e-06 -8.161887e-05
          4.871961e-05 2.881627e-05 6.686580e-05 5.997487e-05 1.050982e-04 8.094457e-05
          2.206138e-05 3.074716e-05 -9.944633e-05 -2.411701e-04 2.651098e-05 1.014953e-04
          9.556730e-05 1.093769e-04 2.035315e-05 2.378260e-05 -3.846788e-05 -4.959507e-05
          -5.214594e-05 -3.833727e-05 1.433282e-05 4.150170e-05 8.394733e-05 1.170466e-04
          -4.681432e-05 -1.772847e-04 -2.000806e-04 -1.774231e-04 -1.210576e-04 -5.813477e-05
          -1.376808e-05 1.186067e-04 1.995106e-04 -2.181718e-04 1.622478e-04 2.031368e-04
          1.440348e-04 1.653435e-04 1.729775e-04 1.435906e-04 1.081121e-04 -4.766193e-06
          -4.175750e-05 -9.895834e-05 -1.195572e-04 -9.257979e-05 -6.651378e-05 -2.638528e-05
          -5.671890e-05 6.244734e-05 6.983487e-05 8.845390e-05 6.474783e-05 5.964590e-05
          -1.769637e-05 -9.557630e-05 -3.346180e-05 4.668966e-05 -3.246918e-05 4.279264e-06
          1.598953e-05 8.225554e-06 3.299249e-05 -9.436533e-05 -7.132400e-05 -6.546187e-05
          -5.755775e-05 6.962330e-05 5.867622e-05 4.243799e-05 1.430570e-05 -1.820427e-05
          -1.073454e-08 7.903933e-06 1.572922e-05 3.406439e-06 -2.615136e-05 -5.936770e-05
          -8.336385e-05 -1.524287e-04 -1.762844e-04 1.279472e-04 3.745828e-06 1.087247e-05
          4.764384e-05 3.514815e-05 2.901867e-05 4.434885e-05 6.307772e-05 1.205263e-04
          -5.298783e-05 -9.854403e-05 -1.153371e-04 -9.449550e-05 -7.428131e-05 -4.249558e-05
          -5.170300e-05 7.613449e-05 9.128656e-05 1.110490e-04 9.308931e-05 8.418607e-05
          -5.660307e-06 -8.621205e-05 -4.058901e-05 2.203432e-05 -2.427013e-05 2.282606e-05
          3.420642e-05 2.808093e-05 4.251617e-05 -8.603465e-05 -7.078244e-05 -6.623335e-05
          -5.858688e-05 7.192101e-05 6.732505e-05 5.414416e-05 3.109400e-05 2.220198e-06
          -1.222694e-07 -8.726828e-06 -3.757838e-06 -1.339107e-05 -3.633557e-05 -6.236295e-05
          -8.146468e-05 -1.344676e-04 -1.479582e-04 1.087532e-04 3.453247e-05 4.994668e-05
          8.060942e-05 7.088907e-05 6.554645e-05 7.725821e-05 9.176595e-05 1.352322e-04
          -1.091705e-04 1.534742e-04 2.431062e-04 1.100180e-04 -1.634677e-05 -2.051877e-04
          1.235715e-04 1.990508e-05 9.349473e-05 5.286438e-05 1.684093e-04 1.228442e-04
          7.298736e-05 1.636442e-04 -1.703177e-04 -5.444613e-04 1.180147e-04 2.671157e-04
          2.464415e-04 2.821923e-04 6.250139e-05 1.504334e-04 -4.209439e-06 -3.301612e-05
          -4.376293e-05 -9.021543e-05 3.735623e-05 1.093351e-04 2.243896e-04 3.203167e-04
          -6.711207e-05 -3.712876e-04 -4.284258e-04 -3.693023e-04 -2.236048e-04 -6.089190e-05
          5.527973e-05 4.019970e-04 6.018725e-04 -5.531805e-04 3.544556e-04 4.243615e-04
          2.644521e-04 3.210661e-04 3.426817e-04 2.664863e-04 1.745020e-04 -1.126728e-04
          -2.079178e-05 -1.468125e-04 -1.916458e-04 -1.305184e-04 -7.211140e-05 1.670157e-05
          -8.301705e-05 9.836799e-05 1.024594e-04 1.444467e-04 9.297417e-05 9.314035e-05
          -9.258811e-06 -1.352133e-04 8.941706e-06 1.840677e-04 -6.170354e-05 -5.608474e-05
          -3.768065e-05 -5.436431e-05 2.767361e-05 -1.328467e-04 -7.212208e-05 -5.890491e-05
          -4.779228e-05 1.016009e-04 5.829257e-05 2.291109e-05 -3.553005e-05 -9.452114e-05
          1.889153e-05 1.004434e-04 1.224717e-04 9.498321e-05 2.801307e-05 -4.777834e-05
          -1.032292e-04 -2.614993e-04 -3.340447e-04 2.848526e-04 -3.958949e-05 -2.989321e-05
          5.264046e-05 2.613233e-05 1.382211e-05 4.836312e-05 9.051860e-05 2.176120e-04
          -1.234439e-07 -1.862748e-05 -2.637555e-05 -1.877524e-05 -1.184446e-05 -2.284746e-06
          1.188924e-06 7.301819e-05 9.946959e-05 1.279416e-04 1.246389e-04 1.110813e-04
          1.844511e-05 -4.928724e-05 -3.729645e-05 -1.486138e-05 -3.088328e-05 -7.973644e-06
          -2.612014e-06 -4.201882e-06 3.085364e-06 -5.367478e-05 -5.103020e-05 -4.955542e-05
          -4.637208e-05 9.379069e-06 7.446496e-06 1.963954e-06 -7.520374e-06 -1.992248e-05
          -2.278351e-05 -2.849215e-05 -2.695481e-05 -3.036179e-05 -3.806406e-05 -4.741350e-05
          -5.606586e-05 -7.688761e-05 -7.972110e-05 3.989891e-05 6.828371e-05 1.062020e-04
          1.236436e-04 1.204185e-04 1.175404e-04 1.212758e-04 1.261043e-04 1.341757e-04
          1.328564e-05 6.128617e-05 7.648062e-05 5.100356e-05 2.613319e-05 -1.329312e-05
          5.358821e-05 5.663448e-05 9.663591e-05 1.166169e-04 1.430817e-04 1.212391e-04
          3.584550e-05 4.924091e-06 -6.469522e-05 -1.367239e-04 -1.149612e-05 2.119881e-05
          1.839218e-05 2.614106e-05 -1.249605e-05 -3.622182e-06 -3.675127e-05 -4.253649e-05
          -4.432661e-05 -4.806547e-05 -2.463760e-05 -1.161215e-05 9.212360e-06 2.577760e-05
          -4.810659e-05 -1.069999e-04 -1.180854e-04 -1.066089e-04 -7.767406e-05 -4.598407e-05
          -2.572239e-05 3.840785e-05 7.841127e-05 -1.114775e-04 1.340970e-04 1.891817e-04
          1.663697e-04 1.775392e-04 1.805221e-04 1.652234e-04 1.469914e-04 8.149991e-05
          6.443523e-05 -2.130930e-04 -3.104093e-04 -1.730715e-04 -4.261959e-05 1.523827e-04
          -1.339480e-04 1.172003e-04 9.405527e-05 1.757398e-04 6.079254e-05 7.999197e-05
          -3.432621e-05 -2.376732e-04 9.444253e-05 4.830167e-04 -1.469587e-04 -2.287614e-04
          -1.983443e-04 -2.348859e-04 -2.344143e-05 -2.313813e-04 -8.361882e-05 -5.408056e-05
          -3.704310e-05 1.337313e-04 1.565639e-05 -6.129542e-05 -1.860290e-04 -3.001805e-04
          3.953339e-05 2.986896e-04 3.535346e-04 2.923002e-04 1.424856e-04 -2.632185e-05
          -1.496243e-04 -5.077997e-04 -6.948159e-04 5.998357e-04 -2.047012e-04 -2.106551e-04
          -3.174967e-05 -9.040278e-05 -1.156309e-04 -3.788916e-05 5.659968e-05 3.417199e-04
          -6.478533e-05 1.737890e-04 2.555882e-04 1.357252e-04 2.186506e-05 -1.492585e-04
          1.280424e-04 -1.545282e-05 3.974349e-05 -1.822575e-06 1.024277e-04 6.854364e-05
          6.754275e-05 1.792356e-04 -1.187494e-04 -4.579658e-04 1.101366e-04 2.100169e-04
          1.874378e-04 2.199449e-04 3.228112e-05 1.677841e-04 3.287460e-05 6.878763e-06
          -5.705172e-06 -1.081859e-04 -1.003330e-06 6.468243e-05 1.707417e-04 2.637936e-04
          -5.396728e-05 -3.000264e-04 -3.496443e-04 -2.962403e-04 -1.649781e-04 -1.835257e-05
          8.645061e-05 3.980149e-04 5.693154e-04 -5.062910e-04 2.812443e-04 3.337838e-04
          1.878877e-04 2.392627e-04 2.596797e-04 1.911283e-04 1.083483e-04 -1.501403e-04
          2.594504e-05 1.409994e-05 1.048170e-05 1.646356e-05 2.166092e-05 2.847238e-05
          5.885217e-07 -1.735911e-05 -2.409515e-05 -2.272125e-05 -2.785534e-05 -2.608388e-05
          -2.505542e-05 -2.954568e-05 -1.356019e-05 4.880927e-06 -2.519242e-05 -3.259007e-05
          -3.183614e-05 -3.355155e-05 -2.451760e-05 -2.940757e-05 -2.265678e-05 -2.141688e-05
          -2.089052e-05 -1.816961e-05 -2.353568e-05 -2.673601e-05 -3.169082e-05 -3.592097e-05
          -1.865887e-05 -4.622563e-06 -1.850940e-06 -4.558279e-06 -1.069697e-05 -1.660745e-05
          -2.082979e-05 -3.739407e-05 -4.715391e-05 5.292241e-06 -3.264448e-05 -3.705235e-05
          -3.129489e-05 -3.432719e-05 -3.541642e-05 -3.205896e-05 -2.783332e-05 -1.524495e-05
          1.327562e-04 8.579574e-05 7.139057e-05 9.534221e-05 1.157505e-04 1.415778e-04
          2.342748e-05 -6.587642e-05 -8.890605e-05 -7.524709e-05 -9.408047e-05 -8.739490e-05
          -8.462313e-05 -1.024585e-04 -3.896542e-05 3.290333e-05 -1.062877e-04 -1.563231e-04
          -1.553394e-04 -1.615005e-04 -1.171717e-04 -1.032881e-04 -7.504275e-05 -7.013647e-05
          -6.987745e-05 -9.617471e-05 -1.231736e-04 -1.355959e-04 -1.547337e-04 -1.679034e-04
          -7.841505e-05 -5.216705e-06 7.256170e-06 -3.282339e-06 -2.746699e-05 -5.136619e-05
          -6.927332e-05 -1.364795e-04 -1.799272e-04 1.878425e-05 -1.244363e-04 -1.318001e-04
          -1.070306e-04 -1.182758e-04 -1.225267e-04 -1.092022e-04 -9.307513e-05 -4.658060e-05
          8.534189e-05 2.376337e-04 2.920386e-04 2.165273e-04 1.425408e-04 2.677391e-05
          1.305767e-04 -1.033518e-04 -9.064221e-05 -1.192851e-04 -5.250054e-05 -6.796887e-05
          -3.058472e-05 6.756180e-05 -1.136502e-04 -3.241248e-04 -4.604246e-06 1.189292e-05
          -7.863684e-06 1.292521e-05 -9.442244e-05 5.894305e-05 -2.208134e-05 -3.868774e-05
          -5.026428e-05 -1.899422e-04 -1.313653e-04 -8.876047e-05 -1.869313e-05 4.874082e-05
          -1.112583e-04 -2.297051e-04 -2.574497e-04 -2.235982e-04 -1.391437e-04 -4.164142e-05
          2.776024e-05 2.192549e-04 3.137801e-04 -4.021993e-04 7.945152e-05 1.025950e-04
          3.796037e-06 3.546373e-05 4.878005e-05 5.464175e-06 -4.713666e-05 -2.127081e-04
          1.395029e-04 2.740245e-05 -1.007170e-05 4.665587e-05 9.884605e-05 1.731910e-04
          -7.198221e-06 -3.732157e-05 -6.872357e-05 -3.875067e-05 -8.516855e-05 -6.857869e-05
          -6.125150e-05 -1.067410e-04 3.693523e-05 1.982679e-04 -1.100533e-04 -2.011188e-04
          -1.951679e-04 -2.098721e-04 -1.070670e-04 -1.048657e-04 -3.803027e-05 -2.600878e-05
          -2.365917e-05 -4.938192e-05 -1.101724e-04 -1.406407e-04 -1.882644e-04 -2.245698e-04
          -3.315469e-05 1.196495e-04 1.461912e-04 1.211452e-04 6.044593e-05 -5.816416e-06
          -5.451254e-05 -2.065750e-04 -2.993743e-04 1.851441e-04 -1.759137e-04 -1.905350e-04
          -1.224185e-04 -1.466784e-04 -1.561992e-04 -1.241399e-04 -8.549541e-05 3.027559e-05
          1.256502e-04 2.737542e-04 3.261730e-04 2.529788e-04 1.808057e-04 6.649116e-05
          1.591465e-04 -8.851013e-05 -6.794299e-05 -8.192683e-05 -1.416200e-05 -3.061548e-05
          -8.535083e-07 9.185287e-05 -8.535601e-05 -2.927100e-04 -1.163593e-05 -2.611669e-05
          -4.813867e-05 -2.711687e-05 -1.184265e-04 8.052369e-05 3.883129e-06 -1.236547e-05
          -2.633095e-05 -2.178202e-04 -1.694045e-04 -1.278176e-04 -5.846257e-05 1.220314e-05
          -1.121868e-04 -2.007292e-04 -2.259393e-04 -1.927658e-04 -1.104253e-04 -1.628462e-05
          4.928774e-05 2.333471e-04 3.182758e-04 -3.902446e-04 9.331465e-05 1.339322e-04
          4.194956e-05 7.373428e-05 8.683197e-05 4.442238e-05 -7.131277e-06 -1.740869e-04
          1.249850e-04 6.452102e-05 4.430422e-05 7.516624e-05 1.028621e-04 1.405889e-04
          2.636798e-05 -2.511699e-05 -3.919680e-05 -1.317149e-05 -3.607903e-05 -2.760539e-05
          -2.491199e-05 -4.882133e-05 2.910257e-05 1.151735e-04 -7.738347e-05 -1.539714e-04
          -1.533998e-04 -1.607846e-04 -9.466588e-05 -5.020956e-05 -1.211891e-05 -5.722219e-06
          -6.806209e-06 -6.907262e-05 -1.090474e-04 -1.252970e-04 -1.497794e-04 -1.647689e-04
          -3.423731e-05 7.180067e-05 8.788072e-05 7.452851e-05 4.211355e-05 6.643065e-06
          -2.050923e-05 -1.050981e-04 -1.620147e-04 8.733590e-05 -9.760394e-05 -9.353943e-05
          -5.478125e-05 -6.735618e-05 -7.237607e-05 -5.529195e-05 -3.469802e-05 2.322901e-05
          -2.070153e-05 4.533784e-05 6.784273e-05 3.540359e-05 5.335425e-06 -3.877902e-05
          3.977837e-05 -9.127749e-06 7.193509e-07 -1.482823e-05 1.325158e-05 1.153557e-05
          5.605440e-05 1.157939e-04 3.688718e-05 -5.896199e-05 6.682494e-05 6.198683e-05
          5.245860e-05 6.146201e-05 2.223251e-05 1.141707e-04 8.243589e-05 7.547261e-05
          6.917908e-05 -1.728342e-05 3.573741e-06 2.178226e-05 5.241983e-05 8.361049e-05
          2.834809e-05 -1.192996e-05 -2.380388e-05 -9.221510e-06 2.533243e-05 6.250614e-05
          8.922007e-05 1.739240e-04 2.130203e-04 -1.110809e-04 6.654712e-05 7.249880e-05
          3.354941e-05 4.870455e-05 5.525695e-05 3.693929e-05 1.452667e-05 -5.387696e-05
          -1.418466e-04 -8.208764e-05 -6.278930e-05 -9.204933e-05 -1.165087e-04 -1.470185e-04
          -2.081473e-05 3.178995e-05 4.019148e-05 9.208891e-06 3.076974e-05 3.554706e-05
          1.098103e-04 1.828207e-04 1.109416e-04 2.090086e-05 1.547542e-04 1.726144e-04
          1.663104e-04 1.737564e-04 1.321226e-04 1.867938e-04 1.591787e-04 1.532642e-04
          1.492510e-04 1.056111e-04 1.289286e-04 1.449524e-04 1.713923e-04 1.958591e-04
          1.258254e-04 7.100129e-05 5.821370e-05 7.108496e-05 9.972711e-05 1.277395e-04
          1.496374e-04 2.311988e-04 2.731403e-04 -1.983529e-05 9.295705e-05 7.705585e-05
          4.295943e-05 5.740056e-05 6.402427e-05 4.826962e-05 2.879073e-05 -2.338480e-05
          -1.729785e-04 -2.108769e-04 -2.252278e-04 -2.059343e-04 -1.836180e-04 -1.420330e-04
          -1.072507e-04 5.244787e-05 3.894057e-05 1.682117e-05 -6.095442e-06 1.054770e-05
          7.187422e-05 8.902871e-05 1.369803e-04 1.865997e-04 1.244114e-04 1.396330e-04
          1.464043e-04 1.399612e-04 1.607952e-04 9.965062e-05 1.234888e-04 1.282438e-04
          1.326133e-04 1.976851e-04 1.870198e-04 1.758901e-04 1.572950e-04 1.372367e-04
          1.595215e-04 1.727772e-04 1.777928e-04 1.687335e-04 1.437031e-04 1.119521e-04
          9.215343e-05 4.964248e-05 3.130274e-05 1.991234e-04 -7.784964e-06 -5.340471e-05
          -2.953621e-05 -3.674904e-05 -3.882085e-05 -2.658019e-05 -1.200148e-05 4.516197e-05
          -1.793001e-04 -1.755904e-04 -1.748474e-04 -1.765817e-04 -1.749116e-04 -1.649326e-04
          -9.441289e-05 2.346686e-05 1.189834e-05 -2.432751e-05 -3.032547e-05 -2.055297e-05
          3.422770e-05 6.644153e-05 6.353705e-05 5.775850e-05 1.154415e-04 1.688160e-04
          1.735275e-04 1.722598e-04 1.502060e-04 7.584273e-05 7.367253e-05 7.387974e-05
          7.801099e-05 1.653114e-04 1.798237e-04 1.802307e-04 1.793765e-04 1.721129e-04
          1.167088e-04 6.854511e-05 6.398397e-05 6.414761e-05 6.278369e-05 5.930486e-05
          6.043515e-05 7.245965e-05 8.823295e-05 8.011983e-05 1.380578e-05 -3.198484e-05
          -3.788010e-05 -3.735267e-05 -3.624832e-05 -3.600255e-05 -3.575006e-05 -2.164249e-05
          -1.660218e-04 -2.789351e-05 1.989704e-05 -4.884487e-05 -1.118447e-04 -2.008741e-04
          -4.569632e-06 -2.619743e-05 -1.707985e-05 -7.883644e-05 -2.628075e-05 -3.287245e-05
          3.768694e-05 1.442299e-04 -2.265142e-05 -2.166989e-04 1.458912e-04 2.386105e-04
          2.286723e-04 2.457124e-04 1.218473e-04 1.469142e-04 7.059881e-05 5.619619e-05
          5.202462e-05 5.589125e-05 1.274947e-04 1.652592e-04 2.249445e-04 2.730088e-04
          5.347761e-05 -1.196975e-04 -1.507150e-04 -1.205596e-04 -4.767830e-05 3.318069e-05
          9.460846e-05 2.792217e-04 3.859414e-04 -2.391502e-04 1.281528e-04 1.058726e-04
          1.495655e-05 4.383529e-05 5.654289e-05 1.839833e-05 -2.786107e-05 -1.591279e-04
          -3.529873e-05 -1.534953e-04 -1.941577e-04 -1.342854e-04 -7.592906e-05 1.473550e-05
          -1.005774e-04 6.383522e-06 -3.075659e-05 -2.769133e-05 -8.302221e-05 -5.874758e-05
          -1.680930e-05 -4.729831e-05 1.031252e-04 2.711011e-04 -1.600169e-06 -4.171723e-05
          -2.975086e-05 -4.657804e-05 4.253097e-05 -3.711968e-05 3.183417e-05 4.506053e-05
          5.213468e-05 1.191519e-04 6.836500e-05 3.569454e-05 -1.742921e-05 -6.511883e-05
          8.307528e-05 1.969110e-04 2.206790e-04 1.938189e-04 1.268360e-04 5.106813e-05
          -1.438512e-06 -1.538541e-04 -2.368054e-04 2.897800e-04 -1.497157e-04 -2.005763e-04
          -1.300380e-04 -1.556066e-04 -1.650672e-04 -1.302288e-04 -8.827216e-05 4.876422e-05
          -5.402607e-05 1.985420e-04 2.862450e-04 1.616482e-04 4.389373e-05 -1.321000e-04
          1.359073e-04 -8.640642e-05 -5.926369e-05 -1.266278e-04 -2.073728e-05 -3.643529e-05
          7.879554e-05 2.716896e-04 -3.087311e-05 -3.880838e-04 1.587559e-04 2.064690e-04
          1.762413e-04 2.101042e-04 2.979302e-05 2.649291e-04 1.337423e-04 1.068909e-04
          8.899251e-05 -1.165793e-04 -1.707219e-05 5.301541e-05 1.674661e-04 2.757621e-04
          -5.382542e-06 -2.174951e-04 -2.661020e-04 -2.103222e-04 -7.481096e-05 7.609149e-05
          1.855830e-04 5.105932e-04 6.747594e-04 -5.185396e-04 2.069066e-04 2.209871e-04
          6.256704e-05 1.170287e-04 1.404730e-04 6.988706e-05 -1.607800e-05 -2.777167e-04
          -7.342363e-05 -7.093024e-05 -7.064578e-05 -6.993200e-05 -6.643088e-05 -5.626848e-05
          -2.595692e-05 -4.920425e-06 -2.225528e-05 -4.581167e-05 -4.950972e-05 -2.867579e-05
          9.273657e-05 1.703273e-04 1.760762e-04 1.682390e-04 1.232856e-04 7.214728e-05
          6.657653e-05 6.637909e-05 8.501055e-05 1.772288e-04 1.882769e-04 1.887958e-04
          1.841704e-04 8.879235e-05 7.536817e-05 7.604338e-05 7.892288e-05 8.861026e-05
          1.381357e-04 1.803820e-04 1.825508e-04 1.823656e-04 1.785073e-04 1.703798e-04
          1.663129e-04 1.687042e-04 1.568606e-04 9.063032e-05 -2.204960e-05 -5.952585e-05
          -5.934827e-05 -5.708721e-05 -5.456613e-05 -5.321564e-05 -5.223567e-05 -4.094277e-05
          -1.484384e-04 -1.293559e-04 -1.232183e-04 -1.312890e-04 -1.350677e-04 -1.331053e-04
          -5.988480e-05 -1.278047e-06 -1.999028e-05 -6.150548e-05 -6.110373e-05 -4.092736e-05
          8.837448e-05 1.767200e-04 1.616794e-04 1.315536e-04 1.600780e-04 1.514129e-04
          1.476868e-04 1.488362e-04 1.405237e-04 1.866025e-04 1.859907e-04 1.848394e-04
          1.823421e-04 1.424527e-04 1.458313e-04 1.507083e-04 1.595309e-04 1.697669e-04
          1.618645e-04 1.562706e-04 1.527059e-04 1.560053e-04 1.605822e-04 1.620150e-04
          1.663782e-04 1.939580e-04 2.028959e-04 7.535302e-05 -1.872476e-06 -5.439116e-05
          -6.746890e-05 -6.218690e-05 -5.832603e-05 -6.143318e-05 -6.582617e-05 -6.544354e-05
          -1.284179e-04 -1.247388e-04 -1.235590e-04 -1.248338e-04 -1.231534e-04 -1.145349e-04
          -6.719433e-05 -4.467965e-07 -1.724166e-05 -5.050005e-05 -5.566557e-05 -4.197000e-05
          3.725615e-05 8.636442e-05 8.697231e-05 8.133600e-05 1.044775e-04 1.216435e-04
          1.225846e-04 1.215318e-04 1.123961e-04 9.489703e-05 9.702053e-05 9.723233e-05
          9.833639e-05 1.233240e-04 1.287515e-04 1.292989e-04 1.301078e-04 1.289018e-04
          1.089429e-04 9.145869e-05 8.932099e-05 8.942041e-05 8.766900e-05 8.384101e-05
          8.416838e-05 9.276410e-05 9.877171e-05 6.834010e-05 -1.279760e-05 -5.792938e-05
          -6.346875e-05 -6.251872e-05 -6.095443e-05 -6.048374e-05 -6.015529e-05 -4.715904e-05
          -5.911014e-05 -7.439534e-05 -7.945958e-05 -7.180200e-05 -6.338613e-05 -4.789082e-05
          -4.616956e-05 -1.858874e-06 -1.400973e-05 -2.801736e-05 -3.805290e-05 -3.095020e-05
          -3.966489e-06 4.310369e-06 2.511956e-05 4.773698e-05 3.078572e-05 4.469902e-05
          4.806018e-05 4.500243e-05 4.870770e-05 9.140147e-06 1.796003e-05 1.985509e-05
          2.239500e-05 6.498423e-05 6.356869e-05 5.903378e-05 5.151837e-05 4.212439e-05
          4.209447e-05 4.020448e-05 4.198431e-05 3.821694e-05 2.847989e-05 1.745408e-05
          1.120502e-05 -6.324785e-06 -1.257539e-05 5.824813e-05 -2.781370e-05 -5.364517e-05