<?xml version="1.0"?>
<VTKFile type="RectilinearGrid" version="0.1" byte_order="LittleEndian">
  <RectilinearGrid WholeExtent="0 47 0 47 0 47">
    <Piece Extent="0 47 0 47 0 47">
      <PointData Scalars="concentration">
        <DataArray type="Float32" Name="concentration" NumberOfComponents="1" format="ascii">
          2.557255e-03 2.562193e-03 2.565167e-03 2.574149e-03 2.541895e-03 2.400485e-03
          1.507299e-03 -2.960777e-04 -1.460863e-04 3.566873e-04 4.661513e-04 4.092639e-04
          1.631575e-04 7.766998e-05 8.516552e-05 4.784587e-05 -1.118133e-03 -2.349927e-03
          -2.468485e-03 -2.439699e-03 -1.969136e-03 -4.727362e-05 2.749322e-05 2.202628e-05
          -8.369324e-05 -2.244699e-03 -2.562057e-03 -2.551402e-03 -2.495456e-03 -2.288448e-03
          -1.073541e-03 -1.827875e-05 6.209806e-05 7.013178e-05 9.866765e-05 1.331445e-04
          1.036354e-04 -1.619892e-05 -3.225368e-04 -8.254279e-04 -1.542387e-04 4.666600e-04
          5.535631e-04 5.741021e-04 5.750551e-04 5.637616e-04 5.450251e-04 3.032340e-04
          2.081152e-03 2.085355e-03 2.091491e-03 2.099704e-03 2.073025e-03 1.957029e-03
          1.178827e-03 -3.786524e-04 -3.074665e-04 5.526453e-05 1.356321e-04 1.020524e-04
          -2.796787e-05 -5.430005e-05 -3.498742e-05 -5.135162e-05 -9.592942e-04 -1.923189e-03
          -2.017078e-03 -1.996092e-03 -1.638461e-03 -1.480023e-04 -8.735988e-05 -9.142343e-05
          -1.732984e-04 -1.848782e-03 -2.092790e-03 -2.083434e-03 -2.039085e-03 -1.876763e-03
          -9.336605e-04 -1.115803e-04 -4.705773e-05 -4.170014e-05 -1.880356e-05 1.498962e-05
          -7.422811e-07 -9.958803e-05 -3.444992e-04 -7.523345e-04 -2.841283e-04 1.516582e-04
          2.039384e-04 2.164900e-04 2.173798e-04 2.094496e-04 1.960255e-04 1.763676e-05
          1.094224e-03 1.296718e-03 1.372469e-03 1.278733e-03 1.170187e-03 9.661090e-04
          7.140364e-04 -3.796218e-04 -3.571189e-04 -2.472371e-04 -1.260215e-04 -1.484138e-04
          -8.232028e-05 8.392060e-05 -1.356462e-04 -4.164414e-04 -4.422282e-04 -8.955422e-04
          -9.681208e-04 -9.317580e-04 -9.009551e-04 3.335903e-05 -3.854126e-05 -6.181256e-05
          -1.170900e-04 -1.120941e-03 -1.162916e-03 -1.101838e-03 -9.879828e-04 -8.192628e-04
          -5.675869e-04 -3.197535e-04 -3.240348e-04 -2.778196e-04 -1.579533e-04 -1.489940e-05
          7.004372e-05 2.727937e-04 2.739564e-04 -8.883872e-04 -1.104509e-04 8.710301e-05
          -2.429808e-05 2.244926e-05 4.142914e-05 -1.806820e-05 -9.219455e-05 -3.832746e-04
          4.690265e-04 2.953731e-04 2.429592e-04 3.366790e-04 4.185785e-04 5.281814e-04
          7.254118e-05 -3.408736e-04 -4.790122e-04 -4.733070e-04 -5.520491e-04 -4.869286e-04
          -2.453488e-04 -1.642768e-04 9.416291e-05 3.600089e-04 -2.621875e-04 -5.602044e-04
          -5.678345e-04 -5.917338e-04 -3.896863e-04 -1.556318e-04 -2.738027e-05 -7.691752e-06
          -1.615409e-05 -3.058755e-04 -4.346042e-04 -4.793845e-04 -5.463075e-04 -5.763744e-04
          -1.357511e-04 2.300075e-04 2.835299e-04 2.425154e-04 1.448843e-04 4.484917e-05
          -2.648610e-05 -2.827519e-04 -4.760852e-04 1.521863e-04 -5.980306e-04 -7.035902e-04
          -6.158372e-04 -6.560758e-04 -6.678887e-04 -6.150387e-04 -5.517816e-04 -3.550294e-04
          4.561759e-04 6.167966e-04 6.821955e-04 6.113503e-04 5.364891e-04 4.095455e-04
          2.654639e-04 -5.221643e-04 -6.429330e-04 -7.351962e-04 -6.751820e-04 -6.268530e-04
          -2.094635e-04 1.422761e-04 6.545416e-06 -1.946035e-04 -1.009270e-04 -3.456834e-04
          -3.945642e-04 -3.742383e-04 -4.115748e-04 1.427427e-04 9.893387e-05 8.318115e-05
          5.037982e-05 -5.215308e-04 -5.191941e-04 -4.708689e-04 -3.855549e-04 -2.706368e-04
          -1.955209e-04 -1.035235e-04 -1.128939e-04 -8.053543e-05 1.531480e-06 1.045979e-04
          1.813051e-04 3.516274e-04 3.706822e-04 -5.890745e-04 -3.969794e-04 -4.998163e-04
          -6.279473e-04 -5.973208e-04 -5.780853e-04 -6.186625e-04 -6.686533e-04 -8.153251e-04
          8.858917e-04 1.052726e-03 1.120551e-03 1.048590e-03 9.661060e-04 8.121220e-04
          5.225226e-04 -5.770343e-04 -6.736614e-04 -6.840075e-04 -6.035589e-04 -5.636563e-04
          -1.766331e-04 1.703238e-04 3.024634e-05 -1.849433e-04 -2.808375e-04 -7.371482e-04
          -8.071755e-04 -7.813312e-04 -7.413999e-04 1.499454e-04 1.169051e-04 9.973234e-05
          4.827611e-05 -9.008674e-04 -9.511268e-04 -8.995233e-04 -8.021294e-04 -6.491638e-04
          -3.704543e-04 -1.009141e-04 -9.746011e-05 -6.260034e-05 2.685119e-05 1.384542e-04
          2.123113e-04 3.690736e-04 3.386143e-04 -7.358059e-04 -4.230951e-04 -4.234907e-04
          -5.404146e-04 -5.050413e-04 -4.849922e-04 -5.289355e-04 -5.837474e-04 -7.759458e-04
          1.515728e-03 1.299042e-03 1.232872e-03 1.353245e-03 1.444646e-03 1.531231e-03
          6.542350e-04 -4.825449e-04 -5.816686e-04 -3.742292e-04 -4.301763e-04 -3.749304e-04
          -1.939901e-04 -1.440168e-04 1.781131e-04 4.938346e-04 -7.212035e-04 -1.551318e-03
          -1.604319e-03 -1.623137e-03 -1.190979e-03 -1.816729e-04 5.835310e-06 2.851492e-05
          -2.160712e-05 -1.190578e-03 -1.471257e-03 -1.524084e-03 -1.587720e-03 -1.549071e-03
          -5.431226e-04 3.083442e-04 4.048098e-04 3.566486e-04 2.445900e-04 1.295413e-04
          2.644280e-05 -3.384335e-04 -6.928192e-04 -8.114272e-05 -7.455915e-04 -6.257672e-04
          -4.772073e-04 -5.188343e-04 -5.335489e-04 -4.719514e-04 -3.998572e-04 -2.473778e-04
          1.775473e-03 2.090385e-03 2.206253e-03 2.060376e-03 1.891552e-03 1.571819e-03
          1.181144e-03 -5.284074e-04 -4.642156e-04 -2.556954e-04 -5.969822e-05 -1.001035e-04
          -2.535218e-05 2.182181e-04 -1.285647e-04 -5.743683e-04 -6.814826e-04 -1.454383e-03
          -1.573243e-03 -1.514681e-03 -1.434996e-03 1.322930e-04 2.476500e-05 -1.159090e-05
          -1.039425e-04 -1.792764e-03 -1.877883e-03 -1.783066e-03 -1.603246e-03 -1.329643e-03
          -8.670410e-04 -4.213609e-04 -4.245176e-04 -3.518727e-04 -1.651390e-04 5.396605e-05
          1.801086e-04 4.919592e-04 4.793969e-04 -1.352745e-03 -9.706693e-05 2.617673e-04
          1.012873e-04 1.771955e-04 2.069480e-04 1.134734e-04 -2.948274e-06 -4.711030e-04
          1.681260e-03 1.637350e-03 1.626768e-03 1.657880e-03 1.659974e-03 1.602758e-03
          9.122366e-04 -3.365860e-04 -3.060518e-04 -2.034234e-05 2.086108e-05 8.733716e-06
          -4.921567e-05 -6.326444e-05 1.687977e-05 7.299407e-05 -7.794256e-04 -1.585085e-03
          -1.657486e-03 -1.647699e-03 -1.321054e-03 -1.332625e-04 -5.418226e-05 -5.201578e-05
          -1.161520e-04 -1.459108e-03 -1.678604e-03 -1.684029e-03 -1.668808e-03 -1.554916e-03
          -7.242484e-04 -5.896585e-06 5.670000e-05 4.998169e-05 4.107559e-05 3.817434e-05
          5.281308e-06 -1.371889e-04 -3.722520e-04 -5.032001e-04 -3.288260e-04 -1.162532e-05
          5.591978e-05 5.544296e-05 5.267013e-05 6.054992e-05 6.710250e-05 -1.837758e-05
          8.900674e-04 9.036059e-04 9.093768e-04 9.066328e-04 8.889275e-04 8.296110e-04
          5.224900e-04 -1.257723e-04 -7.736300e-05 8.966267e-05 1.317831e-04 1.095010e-04
          1.836227e-05 -9.544229e-06 -2.091648e-05 -4.770817e-05 -4.070432e-04 -8.125966e-04
          -8.534500e-04 -8.422301e-04 -6.966625e-04 -5.283389e-05 -3.569556e-05 -3.899545e-05
          -7.465053e-05 -7.970489e-04 -8.966600e-04 -8.896527e-04 -8.654713e-04 -7.917869e-04
          -4.040902e-04 -6.531290e-05 -4.059823e-05 -3.524735e-05 -1.806333e-05 3.559886e-06
          7.680381e-07 -2.511393e-05 -1.194677e-04 -3.382857e-04 -6.261456e-05 1.481113e-04
          1.674027e-04 1.760362e-04 1.769659e-04 1.696877e-04 1.591133e-04 6.380106e-05
          -3.645398e-04 -3.443031e-04 -3.423800e-04 -3.562429e-04 -3.638213e-04 -3.627639e-04
          -1.421464e-04 2.390307e-04 3.012758e-04 2.968070e-04 3.037509e-04 2.798605e-04
          1.511065e-04 7.088616e-05 1.936257e-05 -2.231926e-05 1.835834e-04 3.618198e-04
          3.776573e-04 3.798883e-04 3.126288e-04 7.440954e-05 4.369841e-05 4.104367e-05
          5.348293e-05 3.210051e-04 3.686110e-04 3.719209e-04 3.733178e-04 3.527772e-04
          1.672745e-04 5.109394e-06 -1.218275e-05 -6.602387e-06 4.322737e-06 9.711177e-06
          1.504230e-05 6.418680e-05 1.293159e-04 1.406235e-04 2.840475e-04 3.100360e-04
          3.079790e-04 3.139700e-04 3.140623e-04 3.071768e-04 2.989177e-04 2.798286e-04
          -1.155244e-03 -1.168680e-03 -1.188138e-03 -1.191167e-03 -1.173182e-03 -1.104108e-03
          -5.086416e-04 6.911451e-04 8.324188e-04 7.975397e-04 7.791550e-04 7.420319e-04
          4.931981e-04 3.032087e-04 2.533617e-04 2.328460e-04 6.335942e-04 1.095864e-03
          1.146212e-03 1.141529e-03 1.012682e-03 3.262394e-04 2.886043e-04 2.898903e-04
          3.274345e-04 1.090256e-03 1.189068e-03 1.178636e-03 1.151072e-03 1.067349e-03
          6.502247e-04 2.753898e-04 2.412349e-04 2.402798e-04 2.263901e-04 1.880447e-04
          1.680317e-04 2.173475e-04 3.472664e-04 6.639290e-04 7.087115e-04 7.160711e-04
          7.532817e-04 7.563366e-04 7.528163e-04 7.553032e-04 7.588617e-04 8.010215e-04
          -1.289173e-03 -1.323989e-03 -1.359544e-03 -1.354736e-03 -1.324572e-03 -1.231502e-03
          -4.893620e-04 1.037273e-03 1.287675e-03 1.340163e-03 1.327641e-03 1.264730e-03
          8.530311e-04 5.492755e-04 4.926170e-04 4.706498e-04 7.951289e-04 1.231193e-03
          1.284505e-03 1.281314e-03 1.200445e-03 5.608600e-04 5.301580e-04 5.329470e-04
          5.681367e-04 1.272333e-03 1.347028e-03 1.328775e-03 1.291477e-03 1.201833e-03
          8.474900e-04 5.176847e-04 4.852112e-04 4.819779e-04 4.563058e-04 3.905133e-04
          3.437166e-04 3.760479e-04 4.992058e-04 9.386786e-04 1.072431e-03 1.208378e-03
          1.297032e-03 1.304135e-03 1.298361e-03 1.304445e-03 1.311653e-03 1.345047e-03
          -1.111578e-03 -1.082010e-03 -1.096199e-03 -1.124746e-03 -1.130142e-03 -1.098954e-03
          -3.342621e-04 1.066444e-03 1.369772e-03 1.471343e-03 1.499395e-03 1.405288e-03
          8.724042e-04 5.270028e-04 3.799131e-04 2.627079e-04 6.945944e-04 1.109989e-03
          1.153170e-03 1.161567e-03 1.051608e-03 5.208045e-04 4.495125e-04 4.443580e-04
          4.718888e-04 1.061674e-03 1.152218e-03 1.152089e-03 1.145578e-03 1.088991e-03
          6.976337e-04 3.434171e-04 3.006891e-04 3.132225e-04 3.282349e-04 3.084648e-04
          2.888113e-04 3.992506e-04 5.589439e-04 7.174224e-04 1.210476e-03 1.445490e-03
          1.504968e-03 1.527268e-03 1.525429e-03 1.510708e-03 1.492573e-03 1.426795e-03
          -6.750533e-04 -7.703279e-04 -8.243930e-04 -7.905833e-04 -7.455734e-04 -6.559356e-04
          -2.083677e-04 9.668291e-04 1.251979e-03 1.438808e-03 1.426410e-03 1.326184e-03
          6.655763e-04 1.890331e-04 1.968362e-04 2.658204e-04 3.322785e-04 6.203617e-04
          6.678576e-04 6.619195e-04 6.728428e-04 1.694959e-04 1.643781e-04 1.716168e-04
          1.999144e-04 7.240376e-04 7.425464e-04 7.096228e-04 6.516103e-04 5.590083e-04
          4.027755e-04 2.398809e-04 2.298715e-04 2.155106e-04 1.707778e-04 9.214808e-05
          2.397629e-05 -4.422651e-05 4.586468e-06 7.282127e-04 9.837450e-04 1.273234e-03
          1.408396e-03 1.401976e-03 1.386983e-03 1.405309e-03 1.427297e-03 1.461601e-03
          -5.921976e-04 -5.181953e-04 -5.111551e-04 -5.622930e-04 -6.016814e-04 -6.448258e-04
          -8.388271e-05 8.479368e-04 1.149643e-03 1.303228e-03 1.364754e-03 1.237252e-03
          5.582932e-04 1.516554e-04 -4.622675e-05 -2.066986e-04 2.741981e-04 6.414712e-04
          6.730622e-04 6.896843e-04 5.566095e-04 1.217630e-04 1.744089e-05 6.021560e-06
          2.679494e-05 5.056753e-04 6.059888e-04 6.205019e-04 6.378151e-04 6.100954e-04
          2.142429e-04 -1.330124e-04 -1.771771e-04 -1.537941e-04 -1.021246e-04 -6.685022e-05
          -5.339849e-05 9.427606e-05 2.631752e-04 2.342962e-04 1.075040e-03 1.392780e-03
          1.413556e-03 1.440459e-03 1.438909e-03 1.408210e-03 1.371185e-03 1.219966e-03
          -1.000769e-03 -1.077278e-03 -1.119560e-03 -1.095898e-03 -1.057541e-03 -9.674832e-04
          -4.615645e-04 8.043516e-04 1.004311e-03 1.059168e-03 1.029100e-03 9.464090e-04
          3.874396e-04 -2.680097e-05 -2.709319e-05 4.137979e-05 3.834381e-04 9.151347e-04
          9.818772e-04 9.712460e-04 8.614663e-04 -2.090429e-05 -5.065413e-05 -4.439965e-05
          4.361699e-06 9.570756e-04 1.051580e-03 1.023509e-03 9.642651e-04 8.400825e-04
          4.144629e-04 2.455769e-05 -2.259929e-06 -1.486413e-05 -5.182608e-05 -1.121851e-04
          -1.543642e-04 -1.831939e-04 -6.946913e-05 6.522832e-04 8.011935e-04 9.208313e-04
          1.005149e-03 9.934983e-04 9.795324e-04 9.950784e-04 1.015121e-03 1.083896e-03
          -1.459309e-03 -1.511144e-03 -1.540138e-03 -1.526919e-03 -1.491128e-03 -1.386641e-03
          -7.718456e-04 6.243809e-04 7.085960e-04 5.875289e-04 5.334116e-04 4.991934e-04
          2.222692e-04 -1.445443e-05 -1.631021e-05 3.901671e-05 6.166486e-04 1.339061e-03
          1.418728e-03 1.402896e-03 1.188624e-03 2.889960e-05 -1.206944e-05 -6.290350e-06
          5.776453e-05 1.337070e-03 1.494922e-03 1.473101e-03 1.417232e-03 1.272882e-03
          6.258403e-04 5.017685e-05 8.051139e-06 -2.778175e-06 -3.650546e-05 -8.830092e-05
          -1.078268e-04 -8.962685e-05 7.802392e-05 6.998779e-04 5.763793e-04 4.601175e-04
          4.894105e-04 4.757156e-04 4.664913e-04 4.805111e-04 4.996905e-04 6.208541e-04
          -1.589493e-03 -1.329652e-03 -1.250470e-03 -1.391858e-03 -1.501477e-03 -1.612246e-03
          -6.419641e-04 5.344493e-04 6.536269e-04 4.407947e-04 5.154163e-04 4.589994e-04
          3.058531e-04 2.933898e-04 -8.443576e-05 -4.688876e-04 8.262901e-04 1.652391e-03
          1.699270e-03 1.724503e-03 1.270878e-03 3.306541e-04 1.232169e-04 9.582240e-05
          1.414636e-04 1.245267e-03 1.537486e-03 1.601733e-03 1.685383e-03 1.667161e-03
          6.290107e-04 -2.468029e-04 -3.517899e-04 -2.938473e-04 -1.602114e-04 -2.514898e-05
          9.204057e-05 5.153739e-04 8.972131e-04 7.084659e-05 8.491707e-04 7.422308e-04
          5.737561e-04 6.267311e-04 6.459666e-04 5.725634e-04 4.857647e-04 2.877943e-04
          -1.502369e-03 -1.630028e-03 -1.685404e-03 -1.632382e-03 -1.556358e-03 -1.387256e-03
          -8.396826e-04 6.173790e-04 6.657288e-04 5.350175e-04 4.430232e-04 4.384690e-04
          2.697014e-04 6.505903e-05 1.664740e-04 3.269298e-04 6.835560e-04 1.332825e-03
          1.415449e-03 1.388627e-03 1.249718e-03 1.186810e-04 1.312940e-04 1.460244e-04
          2.104444e-04 1.448342e-03 1.560786e-03 1.517993e-03 1.429954e-03 1.262814e-03
          7.584422e-04 2.965178e-04 2.723082e-04 2.437179e-04 1.636754e-04 5.734525e-05
          6.971502e-07 -8.102557e-05 2.090846e-05 9.386207e-04 4.563996e-04 2.865403e-04
          3.625325e-04 3.337842e-04 3.200273e-04 3.575221e-04 4.048779e-04 6.215147e-04
          -1.715873e-03 -1.735451e-03 -1.760889e-03 -1.761381e-03 -1.729091e-03 -1.615274e-03
          -7.878509e-04 8.464421e-04 9.765296e-04 8.571374e-04 8.170932e-04 8.064428e-04
          6.919799e-04 5.717179e-04 5.274229e-04 5.055487e-04 1.020367e-03 1.619645e-03
          1.684488e-03 1.674881e-03 1.505775e-03 6.206222e-04 5.867507e-04 5.902699e-04
          6.391786e-04 1.633266e-03 1.761061e-03 1.746499e-03 1.709416e-03 1.599800e-03
          1.059852e-03 5.742814e-04 5.299748e-04 5.263381e-04 4.983292e-04 4.346275e-04
          4.056171e-04 4.704205e-04 6.343201e-04 1.002901e-03 8.233653e-04 7.225181e-04
          7.627124e-04 7.661409e-04 7.645474e-04 7.718657e-04 7.816889e-04 8.770177e-04
          -1.884204e-03 -1.837176e-03 -1.845237e-03 -1.878822e-03 -1.872492e-03 -1.789529e-03
          -7.628901e-04 1.026625e-03 1.216691e-03 1.108195e-03 1.100725e-03 1.086244e-03
          1.004686e-03 9.356054e-04 7.989890e-04 6.608006e-04 1.268521e-03 1.833449e-03
          1.887259e-03 1.888533e-03 1.704996e-03 9.817356e-04 9.200067e-04 9.166658e-04
          9.554643e-04 1.788550e-03 1.923627e-03 1.926185e-03 1.920484e-03 1.846849e-03
          1.290585e-03 7.944355e-04 7.374217e-04 7.493177e-04 7.525128e-04 7.120216e-04
          6.975524e-04 8.542605e-04 1.056815e-03 1.084764e-03 1.090080e-03 1.038673e-03
          1.060906e-03 1.085298e-03 1.091463e-03 1.080201e-03 1.066821e-03 1.086836e-03
          -1.829128e-03 -2.106880e-03 -2.225299e-03 -2.095679e-03 -1.934039e-03 -1.616678e-03
          -9.711394e-04 1.011293e-03 1.109551e-03 1.037398e-03 8.840727e-04 9.199674e-04
          8.624933e-04 6.544254e-04 9.272029e-04 1.255473e-03 1.117720e-03 1.574902e-03
          1.661896e-03 1.617741e-03 1.675757e-03 7.199284e-04 8.408019e-04 8.730286e-04
          9.315882e-04 1.958322e-03 1.956010e-03 1.869188e-03 1.718116e-03 1.513066e-03
          1.359328e-03 1.173074e-03 1.182226e-03 1.120857e-03 9.448461e-04 7.061334e-04
          5.519282e-04 2.856132e-04 2.603120e-04 1.760529e-03 6.629543e-04 5.116566e-04
          7.261032e-04 6.789965e-04 6.573988e-04 7.398239e-04 8.400874e-04 1.220533e-03
          -1.745218e-03 -1.506891e-03 -1.439246e-03 -1.564871e-03 -1.651376e-03 -1.714860e-03
          -6.748521e-04 6.066396e-04 7.062500e-04 4.703982e-04 5.296035e-04 5.263210e-04
          6.626968e-04 8.234379e-04 4.897186e-04 1.149286e-04 1.170478e-03 1.796995e-03
          1.827931e-03 1.850616e-03 1.495349e-03 8.744847e-04 7.155805e-04 6.925279e-04
          7.219739e-04 1.483663e-03 1.711314e-03 1.769052e-03 1.850048e-03 1.854638e-03
          1.042138e-03 3.550340e-04 2.638067e-04 3.155647e-04 4.229617e-04 5.145174e-04
          6.021303e-04 9.931679e-04 1.313327e-03 4.238097e-04 8.535492e-04 6.905323e-04
          5.533852e-04 6.098332e-04 6.335985e-04 5.707560e-04 4.954547e-04 3.448214e-04
          -7.455571e-04 -7.584934e-04 -7.662475e-04 -7.609274e-04 -7.418675e-04 -6.833033e-04
          -4.031802e-04 1.539541e-04 1.226603e-04 -4.786015e-06 -3.862605e-05 -7.075691e-06
          1.446144e-04 2.167836e-04 2.311938e-04 2.450268e-04 4.458703e-04 6.871908e-04
          7.124678e-04 7.041269e-04 6.260241e-04 2.531378e-04 2.533477e-04 2.566380e-04
          2.777649e-04 7.027630e-04 7.572081e-04 7.506878e-04 7.335704e-04 6.871905e-04
          4.659843e-04 2.695599e-04 2.541209e-04 2.492435e-04 2.299350e-04 2.001533e-04
          1.925702e-04 2.085747e-04 2.636511e-04 3.900026e-04 9.296589e-05 -7.221669e-05
          -7.538319e-05 -7.901540e-05 -7.796167e-05 -7.022695e-05 -6.026942e-05 2.005948e-05
          2.582214e-04 2.026710e-04 1.860951e-04 2.158362e-04 2.388625e-04 2.641184e-04
          7.710810e-05 -1.205445e-04 -1.537430e-04 -1.280755e-04 -1.481713e-04 -1.390752e-04
          -1.267082e-04 -1.397939e-04 -6.052133e-05 2.673882e-05 -1.787055e-04 -2.809912e-04
          -2.839388e-04 -2.908034e-04 -2.239140e-04 -1.437054e-04 -1.068423e-04 -1.009576e-04
          -1.041592e-04 -2.066912e-04 -2.491319e-04 -2.631770e-04 -2.841330e-04 -2.927407e-04
          -1.454486e-04 -2.237710e-05 -4.384808e-06 -1.702342e-05 -4.495554e-05 -7.125370e-05
          -9.213165e-05 -1.774890e-04 -2.412661e-04 -2.504479e-05 -1.900432e-04 -1.902112e-04
          -1.610626e-04 -1.745872e-04 -1.795700e-04 -1.637687e-04 -1.447621e-04 -9.449429e-05
          1.430179e-04 2.833970e-04 3.322167e-04 2.631400e-04 1.938102e-04 8.288238e-05
          1.693013e-04 -6.382675e-05 -3.305210e-05 -3.296493e-05 3.383203e-05 1.221982e-05
          6.726033e-06 7.368573e-05 -9.753908e-05 -2.950652e-04 -3.102621e-05 -4.632699e-05
          -6.690114e-05 -4.650508e-05 -1.308475e-04 6.009828e-05 -1.450564e-05 -3.001401e-05
          -4.348900e-05 -2.290848e-04 -1.842622e-04 -1.448110e-04 -7.920064e-05 -1.228180e-05
          -1.273847e-04 -2.091723e-04 -2.330581e-04 -2.014414e-04 -1.223326e-04 -3.230243e-05
          2.932197e-05 2.032605e-04 2.839510e-04 -3.783202e-04 1.154339e-04 1.738254e-04
          8.968455e-05 1.199743e-04 1.318899e-04 9.130537e-05 4.186643e-05 -1.224388e-04
          3.017714e-04 1.782226e-04 1.344701e-04 1.985252e-04 2.554331e-04 3.317568e-04
          1.079670e-04 1.065566e-05 7.870673e-06 9.240145e-05 5.153219e-05 6.454303e-05
          4.838027e-05 -1.231457e-05 1.423687e-04 3.102389e-04 -1.395041e-04 -3.521908e-04
          -3.555858e-04 -3.688742e-04 -2.067695e-04 -2.065939e-05 6.103770e-05 7.404937e-05
          6.656095e-05 -1.667520e-04 -2.655297e-04 -2.987173e-04 -3.468802e-04 -3.686566e-04
          -4.205969e-05 2.249762e-04 2.605963e-04 2.337158e-04 1.673502e-04 9.089524e-05
          2.957704e-05 -1.460104e-04 -2.741452e-04 2.165596e-04 -1.275454e-04 -7.616154e-05
          1.498437e-05 -8.122794e-06 -1.814177e-05 1.651873e-05 5.765778e-05 1.638186e-04
          6.347714e-04 7.738046e-04 8.215834e-04 7.565780e-04 6.847563e-04 5.537239e-04
          4.744108e-04 -1.098410e-04 -5.257219e-05 4.515072e-05 1.320260e-04 1.109343e-04
          1.235116e-04 2.153658e-04 5.276917e-05 -1.540478e-04 -1.805503e-04 -4.961166e-04
          -5.452457e-04 -5.191245e-04 -4.854140e-04 1.791242e-04 1.298962e-04 1.139628e-04
          7.469338e-05 -6.388652e-04 -6.734663e-04 -6.326147e-04 -5.548261e-04 -4.386600e-04
          -2.535144e-04 -7.583111e-05 -8.041986e-05 -4.797678e-05 3.239344e-05 1.210972e-04
          1.709876e-04 3.161633e-04 3.209992e-04 -4.728397e-04 8.604817e-05 2.595403e-04
          1.988198e-04 2.347583e-04 2.481713e-04 2.069068e-04 1.553725e-04 -5.063687e-05
          4.676116e-04 4.000116e-04 3.766441e-04 4.142007e-04 4.433812e-04 4.721164e-04
          2.344246e-04 -6.077133e-05 -6.012851e-05 3.311340e-05 2.100626e-05 3.222989e-05
          5.614961e-05 5.200612e-05 1.448421e-04 2.336910e-04 -1.798675e-04 -4.718339e-04
          -4.907947e-04 -4.951294e-04 -3.406528e-04 3.575236e-05 9.586135e-05 1.027595e-04
          8.374270e-05 -3.493805e-04 -4.485325e-04 -4.654389e-04 -4.841984e-04 -4.669448e-04
          -1.152219e-04 1.812111e-04 2.122610e-04 1.978896e-04 1.625987e-04 1.218000e-04
          8.352768e-05 -2.972918e-05 -1.452315e-04 3.794095e-05 -1.313427e-04 -5.175119e-05
          7.073153e-06 -3.050190e-06 -7.495538e-06 1.123758e-05 3.274619e-05 6.956345e-05
          -2.085734e-04 -1.501839e-04 -1.338837e-04 -1.627722e-04 -1.852365e-04 -2.100155e-04
          -3.066282e-05 1.214559e-04 1.550034e-04 1.382909e-04 1.614994e-04 1.620416e-04
          2.103208e-04 2.653629e-04 1.876481e-04 9.147826e-05 2.209752e-04 2.398030e-04
          2.344527e-04 2.426046e-04 2.076375e-04 2.682464e-04 2.408267e-04 2.349063e-04
          2.305979e-04 1.804490e-04 2.008662e-04 2.159162e-04 2.414138e-04 2.648089e-04
          1.997005e-04 1.472132e-04 1.334531e-04 1.465169e-04 1.735483e-04 1.957281e-04
          2.123340e-04 2.957987e-04 3.402867e-04 5.925809e-05 1.884785e-04 1.962036e-04
          1.720478e-04 1.882589e-04 1.949025e-04 1.792917e-04 1.598313e-04 1.047632e-04
          -5.119877e-04 -4.553858e-04 -4.413267e-04 -4.705429e-04 -4.872511e-04 -4.916018e-04
          -1.868076e-04 2.064378e-04 2.375958e-04 1.767607e-04 1.893183e-04 1.979138e-04
          2.835053e-04 3.542017e-04 2.747016e-04 1.774319e-04 4.006538e-04 5.230921e-04
          5.282392e-04 5.339781e-04 4.643482e-04 3.699014e-04 3.389826e-04 3.338278e-04
          3.381683e-04 4.642732e-04 5.090106e-04 5.223646e-04 5.421852e-04 5.475201e-04
          3.845053e-04 2.454110e-04 2.242671e-04 2.364123e-04 2.581329e-04 2.706941e-04
          2.851926e-04 3.805846e-04 4.520610e-04 2.136462e-04 2.584071e-04 2.129605e-04
          1.876574e-04 2.035663e-04 2.107630e-04 1.968306e-04 1.796325e-04 1.494995e-04
          -5.576711e-04 -5.951602e-04 -6.089268e-04 -5.920755e-04 -5.661282e-04 -5.057509e-04
          -3.416647e-04 8.329287e-05 4.410521e-05 -5.759187e-05 -9.718254e-05 -7.423776e-05
          1.107373e-05 3.303121e-05 7.816876e-05 1.342671e-04 2.706581e-04 4.921654e-04
          5.184889e-04 5.077722e-04 4.475066e-04 6.255069e-05 7.192977e-05 7.717394e-05
          9.930836e-05 5.271572e-04 5.707954e-04 5.585288e-04 5.312574e-04 4.771938e-04
          2.936125e-04 1.288122e-04 1.204658e-04 1.104774e-04 8.255227e-05 4.878909e-05
          3.598380e-05 1.372053e-05 4.707787e-05 2.977580e-04 3.874509e-06 -1.391863e-04
          -1.320617e-04 -1.430586e-04 -1.454553e-04 -1.320369e-04 -1.151216e-04 -2.223195e-05
          -4.472715e-04 -4.418983e-04 -4.346109e-04 -4.396598e-04 -4.397572e-04 -4.255296e-04
          -3.353570e-04 -1.321742e-04 -2.192962e-04 -3.671350e-04 -3.945885e-04 -3.797468e-04
          -3.085158e-04 -2.753560e-04 -2.715878e-04 -2.512151e-04 7.455991e-05 3.980883e-04
          4.269676e-04 4.193351e-04 2.767529e-04 -2.450825e-04 -2.706553e-04 -2.702255e-04
          -2.417292e-04 3.420117e-04 4.342089e-04 4.349563e-04 4.240844e-04 3.732061e-04
          3.684252e-05 -2.498292e-04 -2.693057e-04 -2.706042e-04 -2.699621e-04 -2.588745e-04
          -2.359641e-04 -2.062180e-04 -1.286680e-04 -2.519039e-05 -1.683634e-04 -3.595719e-04
          -4.066070e-04 -4.160324e-04 -4.168196e-04 -4.159021e-04 -4.131787e-04 -3.565782e-04
          -9.454239e-06 1.319177e-04 1.901431e-04 1.194085e-04 4.803702e-05 -6.277967e-05
          -3.687131e-05 -3.413565e-04 -4.218606e-04 -5.482949e-04 -5.055260e-04 -5.097269e-04
          -4.266046e-04 -3.109442e-04 -4.614797e-04 -6.240360e-04 -1.369560e-04 6.878831e-05
          6.696489e-05 8.034820e-05 -1.130802e-04 -3.023137e-04 -3.927776e-04 -4.076456e-04
          -4.003400e-04 -1.631758e-04 -5.037293e-05 -9.834026e-06 4.778997e-05 7.926126e-05
          -2.733028e-04 -5.538124e-04 -5.881360e-04 -5.588441e-04 -4.783725e-04 -3.706391e-04
          -2.841690e-04 -1.012412e-04 2.440076e-05 -5.617405e-04 -2.033979e-04 -3.210941e-04
          -4.549254e-04 -4.362062e-04 -4.254974e-04 -4.644250e-04 -5.102531e-04 -6.260161e-04
          9.231210e-04 8.081284e-04 7.776339e-04 8.398028e-04 8.820795e-04 9.113129e-04
          3.507249e-04 -3.900729e-04 -4.695165e-04 -3.713451e-04 -4.024623e-04 -3.869141e-04
          -3.710403e-04 -3.950557e-04 -2.215533e-04 -3.516262e-05 -5.925284e-04 -9.470294e-04
          -9.676173e-04 -9.790474e-04 -7.935711e-04 -4.174619e-04 -3.322487e-04 -3.207004e-04
          -3.389456e-04 -7.892677e-04 -9.104176e-04 -9.374931e-04 -9.742841e-04 -9.676865e-04
          -5.279992e-04 -1.536618e-04 -1.055063e-04 -1.312136e-04 -1.844647e-04 -2.279002e-04
          -2.687508e-04 -4.643175e-04 -6.353626e-04 -2.481050e-04 -5.243330e-04 -4.763003e-04
          -4.164907e-04 -4.445569e-04 -4.549065e-04 -4.235454e-04 -3.860355e-04 -3.065537e-04
          1.401123e-03 1.655301e-03 1.751845e-03 1.633881e-03 1.497587e-03 1.240034e-03
          8.963476e-04 -5.254309e-04 -5.123614e-04 -3.846187e-04 -2.340843e-04 -2.585161e-04
          -1.541907e-04 6.811261e-05 -2.026264e-04 -5.505538e-04 -5.830190e-04 -1.153367e-03
          -1.244811e-03 -1.199794e-03 -1.163856e-03 5.749629e-06 -8.355119e-05 -1.124358e-04
          -1.817901e-04 -1.438507e-03 -1.489902e-03 -1.412897e-03 -1.269974e-03 -1.057819e-03
          -7.432958e-04 -4.321580e-04 -4.368527e-04 -3.791557e-04 -2.288054e-04 -4.720613e-05
          6.178039e-05 3.141978e-04 3.134314e-04 -1.149644e-03 -1.932225e-04 3.806218e-05
          -1.067745e-04 -4.906370e-05 -2.503277e-05 -9.974447e-05 -1.922470e-04 -5.536829e-04
          1.187049e-03 1.190460e-03 1.199341e-03 1.207398e-03 1.196696e-03 1.139469e-03
          6.193599e-04 -4.458984e-04 -5.016255e-04 -3.783571e-04 -3.479793e-04 -3.215240e-04
          -1.350036e-04 1.499994e-05 5.824082e-05 6.290772e-05 -5.028596e-04 -1.109323e-03
          -1.170290e-03 -1.161601e-03 -9.518106e-04 -2.159583e-05 3.211622e-05 3.127018e-05
          -1.927458e-05 -1.054198e-03 -1.202356e-03 -1.195432e-03 -1.167312e-03 -1.064620e-03
          -4.813428e-04 3.037430e-05 7.228571e-05 7.292342e-05 7.959346e-05 9.649955e-05
          9.262744e-05 2.893669e-05 -1.334643e-04 -4.576967e-04 -4.452028e-04 -3.309394e-04
          -3.242860e-04 -3.201648e-04 -3.161384e-04 -3.169589e-04 -3.200746e-04 -3.843176e-04
          1.157113e-04 1.301965e-04 1.407383e-04 1.370588e-04 1.311667e-04 1.186897e-04
          1.054030e-05 -2.487403e-04 -3.311339e-04 -3.920935e-04 -3.964240e-04 -3.665689e-04
          -1.832834e-04 -5.860613e-05 -4.740785e-05 -4.944806e-05 -6.319766e-05 -1.132106e-04
          -1.218152e-04 -1.222236e-04 -1.287484e-04 -4.966365e-05 -4.383851e-05 -4.457550e-05
          -4.875347e-05 -1.288471e-04 -1.306741e-04 -1.249176e-04 -1.158931e-04 -1.007402e-04
          -7.557354e-05 -4.790738e-05 -4.503605e-05 -4.389396e-05 -3.870539e-05 -2.524329e-05
          -1.124578e-05 -4.071796e-06 -1.696171e-05 -1.485454e-04 -2.705137e-04 -3.662490e-04
          -3.977761e-04 -3.990886e-04 -3.958716e-04 -3.971679e-04 -3.988919e-04 -3.901249e-04
          -8.180251e-04 -8.304114e-04 -8.356921e-04 -8.340635e-04 -8.207051e-04 -7.719336e-04
          -4.882903e-04 1.306591e-04 9.756788e-05 -4.769652e-05 -8.488638e-05 -7.833081e-05
          -7.568223e-05 -1.020459e-04 -9.884033e-05 -7.146102e-05 3.147736e-04 7.453188e-04
          7.885415e-04 7.783503e-04 6.222230e-04 -6.494288e-05 -9.073811e-05 -8.839054e-05
          -5.044137e-05 7.157193e-04 8.224972e-04 8.160590e-04 7.915714e-04 7.141991e-04
          3.003092e-04 -6.073535e-05 -8.682876e-05 -9.134725e-05 -1.038297e-04 -1.178151e-04
          -1.116274e-04 -8.451466e-05 1.743970e-05 2.644591e-04 8.474007e-05 -9.182638e-05
          -1.116418e-04 -1.212519e-04 -1.237196e-04 -1.178216e-04 -1.093431e-04 -2.787252e-05
          -1.237914e-03 -1.257167e-03 -1.263996e-03 -1.257833e-03 -1.232072e-03 -1.146875e-03
          -7.447793e-04 1.011929e-04 2.959563e-06 -2.556924e-04 -3.196713e-04 -2.747464e-04
          -6.946429e-05 1.884450e-05 4.535998e-05 8.837085e-05 5.755000e-04 1.125751e-03
          1.180594e-03 1.163857e-03 9.618140e-04 8.467401e-05 6.655163e-05 7.143305e-05
          1.203923e-04 1.107992e-03 1.244291e-03 1.234759e-03 1.201768e-03 1.101321e-03
          5.733438e-04 1.126400e-04 7.974099e-05 7.134702e-05 4.543312e-05 1.463541e-05
          2.012516e-05 5.317320e-05 1.777597e-04 4.587578e-04 -4.022359e-06 -3.395573e-04