<?xml version="1.0"?>
<VTKFile type="RectilinearGrid" version="0.1" byte_order="LittleEndian">
  <RectilinearGrid WholeExtent="0 47 0 47 0 47">
    <Piece Extent="0 47 0 47 0 47">
      <PointData Scalars="concentration">
        <DataArray type="Float32" Name="concentration" NumberOfComponents="1" format="ascii">
          -2.666872e-04 -2.399551e-04 -2.227081e-04 -2.464361e-04 -2.749532e-04 -3.194388e-04
          -2.847021e-04 -1.192920e-04 -1.410470e-04 -2.255112e-04 -2.293646e-04 -3.014494e-04
          -7.137074e-04 -9.772526e-04 -1.036326e-03 -1.025394e-03 -3.787332e-04 2.311925e-04
          2.855015e-04 2.811588e-04 1.211240e-05 -9.707640e-04 -1.064007e-03 -1.068890e-03
          -1.016976e-03 5.721070e-05 2.356914e-04 2.420528e-04 2.301163e-04 1.421065e-04
          -5.033936e-04 -1.051332e-03 -1.089958e-03 -1.083741e-03 -1.050393e-03 -9.871699e-04
          -9.310478e-04 -8.641044e-04 -7.000744e-04 -4.430931e-04 -5.410699e-05 -1.200694e-04
          -1.938035e-04 -2.075620e-04 -2.160644e-04 -2.290357e-04 -2.401611e-04 -2.520674e-04
          -1.022271e-04 -7.352297e-05 -6.353797e-05 -8.558645e-05 -1.104411e-04 -1.512558e-04
          -6.955503e-05 1.074251e-04 1.728523e-04 1.964775e-04 2.145970e-04 1.447956e-04
          -2.397978e-04 -4.758666e-04 -5.476614e-04 -5.770124e-04 -2.128105e-04 1.068947e-04
          1.347691e-04 1.378457e-04 -1.657524e-07 -4.872836e-04 -5.532611e-04 -5.585285e-04
          -5.334482e-04 -4.871977e-06 8.929434e-05 9.586190e-05 9.614969e-05 5.673277e-05
          -2.870988e-04 -5.800813e-04 -6.044102e-04 -5.958722e-04 -5.662075e-04 -5.242691e-04
          -4.947289e-04 -4.375578e-04 -3.356750e-04 -2.301392e-04 1.988949e-04 2.760240e-04
          2.490412e-04 2.488102e-04 2.438360e-04 2.298979e-04 2.155525e-04 1.618861e-04
          1.596047e-04 3.827546e-04 4.562615e-04 3.420500e-04 2.288226e-04 4.864672e-05
          2.801433e-04 1.128180e-04 2.435039e-04 3.044763e-04 4.222199e-04 3.509293e-04
          1.299619e-04 1.008926e-04 -2.005102e-04 -5.289199e-04 -4.517132e-05 1.118340e-06
          -2.328222e-05 1.187617e-05 -1.356247e-04 6.754682e-05 -6.836472e-05 -9.433224e-05
          -1.106521e-04 -3.018603e-04 -2.168060e-04 -1.555111e-04 -5.438633e-05 4.062222e-05
          -2.039737e-04 -3.903612e-04 -4.343723e-04 -3.818662e-04 -2.512998e-04 -1.073684e-04
          -1.369781e-05 2.734008e-04 4.278546e-04 -5.449213e-04 4.414263e-04 6.366804e-04
          5.214320e-04 5.729040e-04 5.892504e-04 5.210301e-04 4.388200e-04 1.497124e-04
          5.608036e-04 3.998962e-04 3.424674e-04 4.243297e-04 4.937989e-04 5.787893e-04
          2.450114e-04 5.144515e-05 8.490608e-05 2.501983e-04 2.085253e-04 2.037135e-04
          6.228506e-05 -8.881260e-05 1.022780e-04 3.170663e-04 -3.006798e-04 -6.110658e-04
          -6.183241e-04 -6.328959e-04 -4.058596e-04 -1.132833e-04 -1.195310e-05 3.978755e-06
          -8.784860e-06 -3.750215e-04 -5.127379e-04 -5.557277e-04 -6.168208e-04 -6.393336e-04
          -1.796285e-04 1.977672e-04 2.464092e-04 2.128072e-04 1.313972e-04 3.828285e-05
          -4.233648e-05 -2.753729e-04 -4.481635e-04 2.052621e-04 -1.005825e-04 4.537319e-05
          1.732026e-04 1.446247e-04 1.299031e-04 1.723969e-04 2.233037e-04 3.342186e-04
          7.035914e-04 8.708385e-04 9.343062e-04 8.528245e-04 7.601380e-04 5.910547e-04
          4.452642e-04 -2.850493e-04 -2.636264e-04 -2.043306e-04 -1.107017e-04 -1.514352e-04
          -2.331831e-04 -1.894665e-04 -3.836676e-04 -6.045530e-04 -4.104280e-04 -5.608905e-04
          -5.991765e-04 -5.719970e-04 -6.341863e-04 -2.258959e-04 -3.121677e-04 -3.318171e-04
          -3.580849e-04 -7.897759e-04 -7.644130e-04 -7.148792e-04 -6.301572e-04 -5.279833e-04
          -5.440749e-04 -5.321001e-04 -5.491168e-04 -5.107372e-04 -4.074218e-04 -2.788871e-04
          -1.970518e-04 -1.355237e-05 4.378290e-05 -7.806832e-04 -5.235071e-05 8.455526e-05
          -2.220270e-05 1.131941e-05 2.361802e-05 -2.732391e-05 -8.872889e-05 -3.191852e-04
          7.343463e-04 9.043891e-04 9.768091e-04 8.928843e-04 7.931475e-04 6.088504e-04
          3.506026e-04 -5.456025e-04 -6.055757e-04 -6.215518e-04 -5.405471e-04 -5.818391e-04
          -6.712562e-04 -6.345675e-04 -8.172740e-04 -1.007821e-03 -6.346530e-04 -6.128408e-04
          -6.367498e-04 -6.142007e-04 -7.654477e-04 -6.613824e-04 -7.670654e-04 -7.870039e-04
          -7.969581e-04 -8.950392e-04 -8.143705e-04 -7.629255e-04 -6.832064e-04 -6.078991e-04
          -8.131844e-04 -9.580988e-04 -9.826674e-04 -9.452433e-04 -8.351231e-04 -6.823990e-04
          -5.758281e-04 -3.875532e-04 -2.952481e-04 -1.047561e-03 -3.290451e-04 -2.963080e-04
          -4.454069e-04 -4.223190e-04 -4.124032e-04 -4.639536e-04 -5.245249e-04 -7.332957e-04
          5.796485e-04 3.672359e-04 3.082615e-04 4.129634e-04 4.950149e-04 5.911305e-04
          -1.407592e-05 -4.549815e-04 -5.965477e-04 -5.804731e-04 -6.742200e-04 -6.770173e-04
          -8.643263e-04 -1.077681e-03 -7.955556e-04 -4.366225e-04 -7.786595e-04 -7.126131e-04
          -6.803185e-04 -7.126684e-04 -6.404118e-04 -1.078492e-03 -9.901157e-04 -9.686319e-04
          -9.409596e-04 -5.169334e-04 -5.549478e-04 -6.101123e-04 -7.088938e-04 -8.166743e-04
          -7.148825e-04 -6.402945e-04 -5.983022e-04 -6.465970e-04 -7.449584e-04 -8.227286e-04
          -8.763254e-04 -1.170093e-03 -1.299756e-03 -2.118823e-04 -7.081867e-04 -7.907370e-04
          -7.160177e-04 -7.789562e-04 -8.040896e-04 -7.467116e-04 -6.743682e-04 -4.551950e-04
          1.569672e-04 4.817647e-04 6.027637e-04 4.360392e-04 2.659450e-04 -5.679573e-06
          1.686897e-04 -3.074725e-04 -2.873069e-04 -3.692517e-04 -2.304893e-04 -3.133306e-04
          -5.293530e-04 -5.135522e-04 -9.167943e-04 -1.335394e-03 -3.345906e-04 2.750741e-05
          1.678031e-05 5.758755e-05 -3.084121e-04 -5.344549e-04 -7.550732e-04 -7.919349e-04
          -7.873808e-04 -4.880541e-04 -2.712086e-04 -1.801751e-04 -4.395474e-05 4.600747e-05
          -6.298439e-04 -1.166958e-03 -1.243340e-03 -1.170717e-03 -9.767227e-04 -7.360284e-04
          -5.607849e-04 -1.385448e-04 1.415486e-04 -1.158697e-03 1.127481e-04 1.546119e-04
          -8.786848e-05 -3.193215e-05 -1.082948e-05 -1.075339e-04 -2.218541e-04 -5.783688e-04
          7.083079e-05 3.967763e-05 3.276742e-05 4.348271e-05 4.702853e-05 4.414918e-05
          -5.252106e-05 -5.937352e-05 -5.959740e-05 -4.836182e-05 -6.012005e-05 -1.013472e-04
          -3.676795e-04 -5.537472e-04 -5.306674e-04 -4.641894e-04 -3.152068e-04 -1.000544e-04
          -7.536975e-05 -8.126699e-05 -1.523560e-04 -5.596518e-04 -5.795170e-04 -5.777391e-04
          -5.555612e-04 -1.247971e-04 -7.415112e-05 -8.273754e-05 -1.053996e-04 -1.549663e-04
          -3.473325e-04 -5.136971e-04 -5.189973e-04 -5.250564e-04 -5.296256e-04 -5.211085e-04
          -5.142437e-04 -5.470210e-04 -5.141577e-04 -2.004112e-04 -6.492160e-05 -4.723042e-05
          -4.924552e-05 -6.434010e-05 -7.316578e-05 -6.831437e-05 -6.016204e-05 -3.982982e-05
          8.620159e-05 1.128698e-04 1.216478e-04 1.059194e-04 8.729537e-05 5.356267e-05
          6.333678e-05 4.095532e-05 8.301200e-05 1.202250e-04 1.404884e-04 1.070929e-04
          -6.142208e-05 -1.543915e-04 -2.020867e-04 -2.386298e-04 -1.259519e-04 -6.340816e-05
          -6.051393e-05 -5.545868e-05 -9.390456e-05 -1.666984e-04 -1.968893e-04 -2.009464e-04
          -1.979023e-04 -1.202177e-04 -9.476760e-05 -8.765543e-05 -7.780378e-05 -7.574073e-05
          -1.615774e-04 -2.323447e-04 -2.407087e-04 -2.334567e-04 -2.121573e-04 -1.855069e-04
          -1.699338e-04 -1.338789e-04 -9.973010e-05 -1.536969e-04 1.046607e-04 1.771014e-04
          1.638186e-04 1.687141e-04 1.680387e-04 1.574792e-04 1.456215e-04 9.402900e-05
          1.468455e-04 1.776037e-04 1.846417e-04 1.705252e-04 1.561641e-04 1.307781e-04
          1.582558e-04 9.404951e-05 1.475545e-04 2.088036e-04 2.355699e-04 2.271503e-04
          2.119040e-04 2.226593e-04 1.786104e-04 1.179110e-04 3.820401e-05 -1.046889e-04
          -1.217879e-04 -1.135015e-04 -6.845893e-05 2.086177e-04 2.040433e-04 2.002997e-04
          1.846441e-04 -1.166799e-04 -1.474217e-04 -1.390224e-04 -1.191795e-04 -8.142296e-05
          3.897762e-05 1.442889e-04 1.462745e-04 1.543291e-04 1.706364e-04 1.817984e-04
          1.827758e-04 2.140735e-04 2.014310e-04 -4.708623e-06 1.500317e-04 2.446007e-04
          2.496399e-04 2.626246e-04 2.662951e-04 2.565440e-04 2.441624e-04 1.841745e-04
          2.554647e-05 1.886378e-05 1.631673e-05 2.151348e-05 2.707068e-05 3.649994e-05
          2.031561e-05 -1.575810e-05 -2.727077e-05 -2.920364e-05 -3.265567e-05 -1.758234e-05
          6.559519e-05 1.166166e-04 1.324388e-04 1.384007e-04 5.094801e-05 -2.591258e-05
          -3.260615e-05 -3.315624e-05 6.580999e-07 1.186104e-04 1.338907e-04 1.350172e-04
          1.290431e-04 6.976599e-07 -2.205279e-05 -2.381131e-05 -2.382098e-05 -1.411302e-05
          6.878550e-05 1.393551e-04 1.450351e-04 1.431608e-04 1.363272e-04 1.263295e-04
          1.188702e-04 1.055883e-04 8.162521e-05 5.761835e-05 -3.547498e-05 -4.803557e-05
          -4.051595e-05 -3.999140e-05 -3.894319e-05 -3.599024e-05 -3.256451e-05 -2.161548e-05
          -2.732357e-04 -3.019548e-04 -3.089304e-04 -2.947535e-04 -2.775180e-04 -2.410842e-04
          -2.165447e-04 -7.779073e-05 -1.434712e-04 -2.322754e-04 -2.638977e-04 -2.405127e-04
          -1.397018e-04 -9.770656e-05 -5.133554e-05 3.388687e-06 8.408624e-05 2.250503e-04
          2.415407e-04 2.324939e-04 1.881329e-04 -7.580382e-05 -6.596286e-05 -6.188098e-05
          -4.654154e-05 2.457999e-04 2.758086e-04 2.672803e-04 2.481791e-04 2.118290e-04
          9.277500e-05 -1.187087e-05 -1.487168e-05 -2.307668e-05 -4.270544e-05 -6.058676e-05
          -6.402141e-05 -8.946580e-05 -7.602556e-05 9.724028e-05 -1.477090e-04 -2.808651e-04
          -2.871887e-04 -2.984352e-04 -3.004570e-04 -2.900025e-04 -2.763499e-04 -2.033824e-04
          -5.299447e-04 -4.934730e-04 -4.800307e-04 -4.999255e-04 -5.105674e-04 -5.070395e-04
          -2.967879e-04 1.326893e-05 -2.694694e-05 -1.516346e-04 -1.605892e-04 -1.459757e-04
          -4.829228e-05 1.684426e-05 -2.556267e-05 -6.827514e-05 2.507903e-04 5.080177e-04
          5.273757e-04 5.258729e-04 4.011963e-04 4.362277e-05 1.052997e-05 7.797631e-06
          2.688957e-05 4.387300e-04 5.188420e-04 5.270941e-04 5.328764e-04 5.071564e-04
          2.168199e-04 -2.993023e-05 -5.323088e-05 -4.691426e-05 -3.318343e-05 -1.744166e-05
          6.174077e-06 7.812271e-05 1.634393e-04 8.074955e-05 2.107286e-05 -1.225176e-04
          -1.676872e-04 -1.644847e-04 -1.608135e-04 -1.685670e-04 -1.769042e-04 -1.612324e-04
          -7.121302e-04 -7.998889e-04 -8.343266e-04 -7.928732e-04 -7.395393e-04 -6.306121e-04
          -4.191602e-04 2.240321e-04 2.040660e-04 1.163735e-04 5.490355e-05 8.408390e-05
          1.627551e-04 1.539722e-04 2.520288e-04 3.671410e-04 3.961561e-04 6.132892e-04
          6.468690e-04 6.295567e-04 6.119396e-04 1.883000e-04 2.259830e-04 2.368905e-04
          2.623576e-04 7.258725e-04 7.470425e-04 7.195107e-04 6.688994e-04 5.924745e-04
          4.660632e-04 3.418404e-04 3.410361e-04 3.201862e-04 2.618180e-04 1.870082e-04
          1.449694e-04 6.524428e-05 7.126046e-05 5.543374e-04 8.640238e-05 -5.351912e-05
          -3.823909e-06 -2.239982e-05 -2.848155e-05 -5.178283e-07 3.379356e-05 1.826813e-04
          -8.079702e-04 -7.262882e-04 -7.046660e-04 -7.481649e-04 -7.736692e-04 -7.804265e-04
          -3.280094e-04 2.831724e-04 3.201896e-04 2.134376e-04 2.276714e-04 2.343588e-04
          3.217526e-04 3.980493e-04 2.807642e-04 1.466464e-04 5.523582e-04 8.147124e-04
          8.302315e-04 8.368575e-04 7.011654e-04 4.240506e-04 3.695221e-04 3.620771e-04
          3.759523e-04 7.127279e-04 8.008813e-04 8.195737e-04 8.450164e-04 8.388952e-04
          5.163056e-04 2.410582e-04 2.056298e-04 2.230302e-04 2.560342e-04 2.788595e-04
          3.056261e-04 4.488519e-04 5.726469e-04 2.760739e-04 3.585085e-04 2.716232e-04
          2.265006e-04 2.469837e-04 2.561218e-04 2.356484e-04 2.109176e-04 1.740539e-04
          -4.821909e-04 -5.525305e-04 -5.804237e-04 -5.468564e-04 -5.052112e-04 -4.227618e-04
          -2.805274e-04 1.799315e-04 1.731055e-04 1.238580e-04 7.902186e-05 9.919911e-05
          1.466565e-04 1.321569e-04 2.101447e-04 3.003603e-04 2.810609e-04 4.108496e-04
          4.336363e-04 4.208734e-04 4.245536e-04 1.547576e-04 1.873906e-04 1.959475e-04
          2.125084e-04 5.054354e-04 5.106188e-04 4.888194e-04 4.501491e-04 3.962106e-04
          3.392887e-04 2.780333e-04 2.801721e-04 2.638154e-04 2.180006e-04 1.588602e-04
          1.235080e-04 5.540337e-05 4.953975e-05 4.210808e-04 7.606687e-05 -9.054096e-06
          3.519032e-05 2.133496e-05 1.641786e-05 3.834354e-05 6.514462e-05 1.747396e-04
          1.735688e-04 1.223021e-04 1.085979e-04 1.368818e-04 1.604713e-04 1.908864e-04
          1.908787e-05 -1.718310e-04 -2.356256e-04 -2.498025e-04 -2.758412e-04 -2.507945e-04
          -1.460496e-04 -1.007191e-04 -1.731919e-05 6.759712e-05 -1.146616e-04 -2.029536e-04
          -2.056991e-04 -2.136950e-04 -1.588897e-04 -9.587224e-05 -5.670632e-05 -5.069340e-05
          -5.279933e-05 -1.310157e-04 -1.670244e-04 -1.799307e-04 -1.995247e-04 -2.082572e-04
          -8.139266e-05 2.524705e-05 4.178461e-05 2.918172e-05 3.492067e-07 -2.620229e-05
          -4.395710e-05 -1.221926e-04 -1.819863e-04 -3.342495e-06 -2.567299e-04 -3.136711e-04
          -2.953513e-04 -3.086865e-04 -3.121123e-04 -2.961574e-04 -2.765882e-04 -2.125436e-04
          3.109506e-04 5.694543e-04 6.663948e-04 5.410216e-04 4.137293e-04 2.090690e-04
          2.592274e-04 -3.780350e-04 -4.164083e-04 -4.947970e-04 -3.863756e-04 -3.958505e-04
          -2.348314e-04 -3.740889e-06 -2.905456e-04 -6.318711e-04 -1.288831e-04 -1.470399e-04
          -1.860635e-04 -1.522853e-04 -3.302836e-04 -1.526434e-05 -1.451497e-04 -1.727928e-04
          -1.953221e-04 -4.920507e-04 -3.992397e-04 -3.253027e-04 -2.042822e-04 -8.205557e-05
          -3.173433e-04 -4.831433e-04 -5.250995e-04 -4.690339e-04 -3.255595e-04 -1.523168e-04
          -2.707764e-05 2.866199e-04 4.281234e-04 -8.269552e-04 -9.017350e-05 -1.058781e-04
          -2.908541e-04 -2.406257e-04 -2.174720e-04 -2.899265e-04 -3.772275e-04 -6.477531e-04
          3.544447e-04 2.234783e-04 1.862868e-04 2.551886e-04 3.130771e-04 3.880275e-04
          1.643513e-05 -3.139694e-04 -4.308511e-04 -4.414375e-04 -5.034290e-04 -4.664598e-04
          -3.565160e-04 -3.430615e-04 -1.500116e-04 6.243619e-05 -3.076563e-04 -4.314946e-04
          -4.278553e-04 -4.475496e-04 -3.394636e-04 -3.359566e-04 -2.531640e-04 -2.386056e-04
          -2.358469e-04 -2.668458e-04 -3.346360e-04 -3.683620e-04 -4.227593e-04 -4.621076e-04
          -2.344466e-04 -4.697408e-05 -1.179444e-05 -4.274277e-05 -1.123550e-04 -1.767752e-04
          -2.209601e-04 -4.107941e-04 -5.334629e-04 6.068818e-06 -5.033014e-04 -5.985810e-04
          -5.455384e-04 -5.798828e-04 -5.909835e-04 -5.523036e-04 -5.047806e-04 -3.539851e-04
          4.010206e-05 8.047806e-06 5.574640e-06 2.384311e-05 3.814944e-05 5.831675e-05
          -1.094633e-04 -3.213701e-04 -4.454810e-04 -5.416967e-04 -5.748689e-04 -5.407761e-04
          -3.760931e-04 -2.892419e-04 -2.172743e-04 -1.391920e-04 -1.394860e-04 -8.215532e-05
          -7.487732e-05 -8.482292e-05 -1.106159e-04 -2.706398e-04 -2.511848e-04 -2.466594e-04
          -2.370263e-04 -6.256067e-05 -4.882947e-05 -5.615003e-05 -7.260173e-05 -9.658460e-05
          -1.406014e-04 -1.760814e-04 -1.703914e-04 -1.802503e-04 -1.988284e-04 -2.054862e-04
          -2.012093e-04 -2.484185e-04 -2.662091e-04 -1.248434e-04 -4.093059e-04 -5.709985e-04
          -5.925106e-04 -6.086103e-04 -6.110557e-04 -5.991039e-04 -5.836075e-04 -5.083041e-04
          -2.124753e-04 -1.845952e-04 -1.666907e-04 -1.791939e-04 -1.899582e-04 -1.983433e-04
          -2.125451e-04 -2.993253e-04 -4.255610e-04 -5.800032e-04 -5.972409e-04 -5.625942e-04
          -3.527172e-04 -2.150178e-04 -2.174759e-04 -2.230488e-04 1.059938e-05 1.888188e-04
          1.994740e-04 1.951815e-04 8.566723e-05 -1.871347e-04 -2.057513e-04 -2.071597e-04
          -1.925701e-04 1.229062e-04 1.880967e-04 1.964893e-04 2.024476e-04 1.858851e-04
          -3.244375e-05 -2.120084e-04 -2.253175e-04 -2.224559e-04 -2.113429e-04 -1.859156e-04
          -1.536495e-04 -1.117987e-04 -6.248109e-05 -1.612602e-04 -3.282343e-04 -5.374481e-04
          -6.028760e-04 -6.074134e-04 -6.043088e-04 -6.082266e-04 -6.118412e-04 -5.783323e-04
          -1.335558e-04 -4.297813e-04 -5.274076e-04 -3.772397e-04 -2.313626e-04 -2.912843e-06
          -3.321277e-04 -1.278318e-04 -2.777351e-04 -3.290274e-04 -4.791232e-04 -4.048511e-04
          -2.267351e-04 -2.599667e-04 1.309643e-04 5.683436e-04 -4.421436e-05 -7.457513e-05
          -3.912320e-05 -8.479755e-05 1.003756e-04 -2.237423e-04 -5.333872e-05 -1.968475e-05
          4.732836e-06 3.128001e-04 2.082785e-04 1.267606e-04 -8.642370e-06 -1.398459e-04
          1.544049e-04 3.758455e-04 4.325545e-04 3.638277e-04 1.951482e-04 1.164357e-05
          -1.098726e-04 -4.909580e-04 -6.869672e-04 6.481335e-04 -5.430584e-04 -7.558538e-04
          -6.009949e-04 -6.698611e-04 -6.937211e-04 -6.052932e-04 -4.978207e-04 -1.302187e-04
          -1.176094e-04 1.081361e-04 1.827770e-04 7.329572e-05 -2.593044e-05 -1.678075e-04
          1.421705e-04 2.914692e-05 7.398611e-05 2.729571e-05 1.239040e-04 1.273294e-04
          3.334545e-04 5.720078e-04 3.029020e-04 -3.445139e-05 3.368453e-04 2.617930e-04
          2.239819e-04 2.558877e-04 1.494089e-04 5.675969e-04 4.684713e-04 4.451378e-04
          4.180025e-04 1.076485e-05 6.419785e-05 1.262311e-04 2.329832e-04 3.488201e-04
          2.222020e-04 1.370039e-04 9.872668e-05 1.486291e-04 2.630254e-04 3.805408e-04
          4.641538e-04 7.531284e-04 8.741406e-04 -2.744160e-04 2.832727e-04 3.100416e-04
          1.872874e-04 2.423626e-04 2.662050e-04 2.045551e-04 1.284367e-04 -1.044562e-04
          -1.371551e-04 -1.548760e-04 -1.686820e-04 -1.602865e-04 -1.467410e-04 -1.186803e-04
          1.315516e-05 2.776615e-04 3.547118e-04 4.141400e-04 4.162780e-04 4.121336e-04
          3.767218e-04 3.458278e-04 3.482333e-04 3.431302e-04 2.210348e-04 1.389083e-04
          1.351456e-04 1.362980e-04 1.997132e-04 3.407698e-04 3.581615e-04 3.600324e-04
          3.527666e-04 1.957555e-04 1.592342e-04 1.527709e-04 1.471358e-04 1.521018e-04
          2.652399e-04 3.547436e-04 3.593865e-04 3.569897e-04 3.430384e-04 3.126615e-04
          2.858167e-04 2.691113e-04 2.478147e-04 2.968229e-04 2.768687e-04 3.593513e-04
          4.045492e-04 4.097084e-04 4.096327e-04 4.142147e-04 4.186324e-04 4.201402e-04
          -4.558392e-04 -5.077352e-04 -5.320624e-04 -5.154347e-04 -4.946615e-04 -4.514236e-04
          -2.446947e-04 3.768054e-04 4.781327e-04 5.136090e-04 4.941751e-04 4.347473e-04
          3.900518e-05 -2.490232e-04 -2.388436e-04 -1.761240e-04 5.102444e-05 4.018286e-04
          4.450655e-04 4.371932e-04 3.552391e-04 -2.492467e-04 -2.721114e-04 -2.680543e-04
          -2.348661e-04 4.131246e-04 4.799500e-04 4.622257e-04 4.231358e-04 3.408657e-04
          5.343134e-05 -2.061902e-04 -2.214132e-04 -2.302562e-04 -2.507802e-04 -2.774374e-04
          -2.958344e-04 -3.255132e-04 -2.564977e-04 2.374224e-04 3.734769e-04 4.451271e-04
          4.872843e-04 4.751209e-04 4.643918e-04 4.742267e-04 4.877876e-04 5.295472e-04
          -5.315938e-04 -3.851301e-04 -3.384253e-04 -4.227092e-04 -4.996355e-04 -6.043865e-04
          -1.965477e-04 2.815781e-04 4.031569e-04 3.747435e-04 4.364734e-04 3.424881e-04
          -9.478687e-05 -3.182207e-04 -5.542026e-04 -7.593747e-04 4.584749e-05 5.865938e-04
          6.207504e-04 6.376998e-04 3.511748e-04 -3.241841e-04 -4.718467e-04 -4.895451e-04
          -4.569478e-04 3.061697e-04 4.935850e-04 5.307065e-04 5.756496e-04 5.532629e-04
          -1.102735e-04 -6.689159e-04 -7.306865e-04 -6.954445e-04 -6.036117e-04 -4.978084e-04
          -4.183077e-04 -1.852194e-04 4.987298e-05 -2.904873e-04 5.223154e-04 6.005297e-04
          5.044212e-04 5.300742e-04 5.345786e-04 4.870333e-04 4.320327e-04 2.677510e-04
          -4.149860e-04 -5.325641e-04 -5.734753e-04 -5.258659e-04 -4.800595e-04 -4.038156e-04
          -3.560403e-04 2.060479e-04 2.428091e-04 2.425851e-04 1.859111e-04 1.240413e-04
          -3.446661e-04 -7.129402e-04 -6.158511e-04 -4.327301e-04 -1.913582e-04 3.032942e-04
          3.680664e-04 3.475291e-04 2.363616e-04 -7.054068e-04 -7.123496e-04 -7.015113e-04
          -6.488148e-04 3.536107e-04 4.427509e-04 4.076400e-04 3.330144e-04 1.970536e-04
          -1.845344e-04 -5.285542e-04 -5.379976e-04 -5.622682e-04 -6.125020e-04 -6.585313e-04
          -6.856983e-04 -7.976900e-04 -7.395122e-04 1.502055e-04 1.170558e-04 1.130244e-04
          1.643899e-04 1.289634e-04 1.094237e-04 1.371737e-04 1.740447e-04 2.997671e-04
          -4.314914e-04 -2.888702e-04 -2.370188e-04 -3.188398e-04 -3.977036e-04 -5.107319e-04
          -2.287134e-04 4.958206e-05 9.939596e-05 1.924990e-05 6.990073e-05 -1.578797e-05
          -4.111598e-04 -6.102319e-04 -8.239197e-04 -9.982211e-04 -1.325671e-04 4.722248e-04
          5.114290e-04 5.246489e-04 1.985027e-04 -6.097278e-04 -7.607181e-04 -7.778427e-04
          -7.379558e-04 1.699237e-04 3.802914e-04 4.176339e-04 4.588212e-04 4.243818e-04
          -3.118732e-04 -9.287233e-04 -9.907817e-04 -9.578154e-04 -8.652084e-04 -7.463424e-04
          -6.527254e-04 -4.295424e-04 -1.893694e-04 -4.881920e-04 2.650707e-04 2.626684e-04
          1.396128e-04 1.569144e-04 1.599901e-04 1.142353e-04 6.230032e-05 -8.024678e-05
          -2.041680e-04 -2.679299e-04 -2.886868e-04 -2.639329e-04 -2.419395e-04 -2.070901e-04
          -2.051170e-04 7.687131e-05 9.170436e-05 8.761970e-05 5.633533e-05 1.337574e-05
          -2.960743e-04 -5.314908e-04 -4.807402e-04 -3.741249e-04 -1.861324e-04 1.400702e-04
          1.805474e-04 1.687111e-04 8.281806e-05 -5.283631e-04 -5.410518e-04 -5.355033e-04
          -5.016238e-04 1.499813e-04 2.152599e-04 1.963412e-04 1.536709e-04 7.042468e-05
          -1.967750e-04 -4.341733e-04 -4.420918e-04 -4.551762e-04 -4.793816e-04 -4.967894e-04
          -5.054640e-04 -5.647896e-04 -5.199442e-04 3.796434e-06 3.400720e-05 2.940194e-05
          4.979671e-05 2.800910e-05 1.592632e-05 3.014929e-05 4.971323e-05 1.167226e-04
          4.351033e-06 6.940578e-05 9.382802e-05 5.818395e-05 2.079350e-05 -3.969942e-05
          7.387126e-06 -3.426504e-05 -1.446947e-05 -2.396288e-05 5.248950e-06 -3.040642e-05
          -1.852736e-04 -2.545048e-04 -3.455458e-04 -4.256122e-04 -1.362080e-04 2.865164e-05
          3.562001e-05 4.337885e-05 -6.483977e-05 -2.614780e-04 -3.204695e-04 -3.284201e-04
          -3.195298e-04 -9.695143e-05 -2.901061e-05 -1.107057e-05 1.255445e-05 1.530739e-05
          -2.119188e-04 -3.986020e-04 -4.194605e-04 -4.042540e-04 -3.612772e-04 -3.055756e-04
          -2.651237e-04 -1.747566e-04 -9.443449e-05 -2.856015e-04 6.583249e-05 9.294858e-05
          4.098030e-05 5.014052e-05 5.219811e-05 3.114816e-05 6.998843e-06 -7.064374e-05
          2.651512e-04 3.285127e-04 3.558317e-04 3.255606e-04 2.902123e-04 2.253861e-04
          1.263385e-04 -2.260154e-04 -2.613671e-04 -2.789964e-04 -2.510576e-04 -2.559141e-04
          -2.287526e-04 -1.764782e-04 -2.389798e-04 -3.103769e-04 -1.992522e-04 -2.206033e-04
          -2.325325e-04 -2.244611e-04 -2.705992e-04 -1.835707e-04 -2.167664e-04 -2.238500e-04
          -2.299865e-04 -3.174371e-04 -2.948669e-04 -2.755357e-04 -2.445759e-04 -2.115814e-04
          -2.594466e-04 -2.886067e-04 -2.960174e-04 -2.824499e-04 -2.435291e-04 -1.897843e-04
          -1.514811e-04 -8.299122e-05 -5.692421e-05 -3.660651e-04 -1.555819e-04 -1.634571e-04
          -2.198152e-04 -2.108305e-04 -2.060175e-04 -2.243692e-04 -2.460249e-04 -3.174756e-04
          3.819348e-04 3.514935e-04 3.399778e-04 3.605639e-04 3.773868e-04 3.926699e-04
          2.345014e-04 -4.916197e-05 -5.218814e-05 1.641105e-05 1.668442e-05 4.476571e-05
          1.953727e-04 2.887791e-04 3.431806e-04 3.719933e-04 -1.972062e-05 -3.644995e-04
          -3.936094e-04 -3.928701e-04 -2.395284e-04 2.771088e-04 3.306585e-04 3.342526e-04
          3.071917e-04 -2.671928e-04 -3.689169e-04 -3.756727e-04 -3.753600e-04 -3.322318e-04
          3.969098e-05 3.568740e-04 3.835871e-04 3.769240e-04 3.562104e-04 3.267725e-04
          2.977450e-04 2.320751e-04 1.263660e-04 7.733964e-05 -9.271922e-05 -3.623345e-05
          4.652838e-06 5.326137e-06 6.727787e-06 1.664383e-05 2.696852e-05 3.604774e-05
          3.480138e-04 3.615163e-04 3.567275e-04 3.571943e-04 3.602545e-04 3.600197e-04
          3.675390e-04 2.057819e-04 2.912703e-04 4.266346e-04 4.598035e-04 4.892920e-04
          6.913494e-04 8.422547e-04 8.303785e-04 7.598883e-04 2.602404e-04 -2.787425e-04
          -3.306417e-04 -3.185661e-04 -9.659854e-05 8.195878e-04 8.724501e-04 8.714664e-04
          8.219869e-04 -1.800927e-04 -3.274141e-04 -3.231385e-04 -2.954572e-04 -2.003628e-04
          3.402204e-04 8.018118e-04 8.287864e-04 8.333093e-04 8.297428e-04 8.011765e-04
          7.650969e-04 7.533834e-04 6.357526e-04 2.741697e-04 2.308138e-04 3.976610e-04
          4.548472e-04 4.771661e-04 4.858883e-04 4.836773e-04 4.773503e-04 4.158132e-04
          2.535518e-04 4.027446e-04 4.449834e-04 3.761819e-04 3.135345e-04 2.156808e-04
          3.963278e-04 1.981773e-04 3.132924e-04 4.137560e-04 5.038475e-04 5.081764e-04
          6.731178e-04 8.622239e-04 6.776877e-04 4.181908e-04 3.065985e-04 -1.084535e-04
          -1.667502e-04 -1.370995e-04 -4.868074e-05 8.350738e-04 8.032526e-04 7.873755e-04
          7.366088e-04 -2.038136e-04 -2.720288e-04 -2.306068e-04 -1.454039e-04 -8.431442e-06
          2.838475e-04 5.473861e-04 5.422251e-04 5.771425e-04 6.495681e-04 7.077205e-04
          7.351080e-04 9.052305e-04 9.017601e-04 -3.222595e-05 3.940819e-04 5.798789e-04
          5.487471e-04 5.985340e-04 6.179141e-04 5.764117e-04 5.228458e-04 3.179806e-04
          4.960558e-05 -5.958151e-05 -1.006532e-04 -4.493659e-05 1.014758e-05 9.368831e-05
          7.087663e-06 1.179467e-04 1.293116e-04 1.871456e-04 1.467653e-04 1.647871e-04
          1.837220e-04 1.470380e-04 2.781422e-04 4.167833e-04 5.035749e-05 -1.026518e-04
          -1.017008e-04 -1.138559e-04 2.264553e-05 1.467060e-04 2.198750e-04 2.317544e-04
          2.275070e-04 7.049998e-05 -1.084861e-05 -4.122014e-05 -8.563404e-05 -1.105640e-04
          1.482225e-04 3.560337e-04 3.838393e-04 3.600110e-04 2.972333e-04 2.190712e-04
          1.592684e-04 1.382810e-05 -8.717724e-05 3.496000e-04 -9.755711e-06 1.819892e-05
          1.050947e-04 8.697670e-05 7.929681e-05 1.107313e-04 1.477548e-04 2.530476e-04
          -1.531627e-04 1.068794e-04 1.966071e-04 6.461712e-05 -6.007910e-05 -2.458198e-04
          8.129879e-05 -1.063503e-05 4.735856e-05 -1.323024e-05 9.715309e-05 5.429366e-05
          1.532742e-05 1.103566e-04 -2.184835e-04 -5.841168e-04 1.132066e-04 3.026570e-04
          2.858572e-04 3.202251e-04 8.375372e-05 1.008438e-04 -5.531565e-05 -8.376941e-05
          -9.042353e-05 -5.875557e-05 7.973749e-05 1.510989e-04 2.633156e-04 3.515707e-04
          -7.586714e-05 -4.139578e-04 -4.727773e-04 -4.145346e-04 -2.701563e-04 -1.072206e-04
          1.129993e-05 3.569997e-04 5.639838e-04 -5.632430e-04 3.144827e-04 3.562612e-04
          1.911025e-04 2.449816e-04 2.663180e-04 1.913958e-04 1.009397e-04 -1.752746e-04
          2.701552e-04 2.854721e-04 2.961511e-04 2.874741e-04 2.713353e-04 2.330953e-04
          8.912607e-05 -1.814806e-04 -2.043648e-04 -1.969967e-04 -1.867868e-04 -2.074863e-04
          -3.119418e-04 -3.668763e-04 -3.819338e-04 -3.824253e-04 -3.020662e-04 -2.565416e-04
          -2.550808e-04 -2.533727e-04 -2.937131e-04 -3.765897e-04 -3.981267e-04 -4.007478e-04
          -3.969175e-04 -3.115740e-04 -2.878192e-04 -2.820035e-04 -2.758833e-04 -2.759572e-04
          -3.459393e-04 -3.998413e-04 -4.023933e-04 -3.988242e-04 -3.815207e-04 -3.494565e-04
          -3.274450e-04 -3.162757e-04 -3.012544e-04 -3.216744e-04 -1.500256e-04 -1.356612e-04
          -1.637816e-04 -1.669861e-04 -1.686417e-04 -1.751188e-04 -1.819256e-04 -2.118552e-04
          3.950061e-04 4.276025e-04 4.417611e-04 4.236462e-04 3.963965e-04 3.361806e-04
          2.029404e-04 -9.405449e-05 -6.375178e-05 2.587630e-06 3.287619e-05 -9.756591e-06
          -2.208820e-04 -3.312737e-04 -3.803624e-04 -4.152783e-04 -3.500466e-04 -3.537861e-04
          -3.585363e-04 -3.514489e-04 -3.763322e-04 -3.551322e-04 -3.881622e-04 -3.934316e-04
          -3.958649e-04 -4.273552e-04 -4.131329e-04 -4.026084e-04 -3.864631e-04 -3.705149e-04
          -4.026813e-04 -4.233514e-04 -4.267417e-04 -4.177920e-04 -3.876437e-04 -3.439620e-04
          -3.195778e-04 -2.893961e-04 -2.720606e-04 -3.701748e-04 -1.295340e-05 9.424519e-05
          7.154744e-05 7.529102e-05 7.415321e-05 6.056728e-05 4.514037e-05 -3.178157e-05
          3.833468e-05 4.525274e-05 3.680295e-05 3.138623e-05 2.866924e-05 2.414422e-05
          1.691026e-04 3.968931e-04 5.488116e-04 6.905369e-04 7.210044e-04 6.834772e-04
          4.830082e-04 3.645970e-04 3.174879e-04 2.649126e-04 1.374719e-04 1.295695e-06
          -9.637542e-06 -9.241119e-07 7.748492e-05 3.392914e-04 3.380122e-04 3.359393e-04
          3.213160e-04 2.762902e-05 -1.779789e-05 -1.757674e-05 -9.537916e-06 1.583787e-05
          1.658194e-04 2.882674e-04 2.909896e-04 2.962112e-04 3.013227e-04 2.890733e-04
          2.670829e-04 2.783138e-04 2.641379e-04 2.129509e-04 4.681475e-04 6.815662e-04
          7.326760e-04 7.469914e-04 7.474382e-04 7.416601e-04 7.336771e-04 6.683562e-04
          2.147808e-04 2.003108e-04 1.846698e-04 1.935516e-04 2.034551e-04 2.145196e-04
          2.657971e-04 3.339634e-04 4.640377e-04 6.229272e-04 6.471331e-04 6.346291e-04
          5.671952e-04 5.285947e-04 5.233499e-04 4.963482e-04 1.484220e-04 -1.733049e-04
          -1.997259e-04 -1.922299e-04 -3.074736e-05 5.019240e-04 5.353348e-04 5.361405e-04
          5.074579e-04 -8.599229e-05 -1.870927e-04 -1.917955e-04 -1.859802e-04 -1.398819e-04