<?xml version="1.0"?>
<VTKFile type="RectilinearGrid" version="0.1" byte_order="LittleEndian">
  <RectilinearGrid WholeExtent="0 47 0 47 0 47">
    <Piece Extent="0 47 0 47 0 47">
      <PointData Scalars="concentration">
        <DataArray type="Float32" Name="concentration" NumberOfComponents="1" format="ascii">
          9.291360e-04 9.433083e-04 9.631250e-04 9.645392e-04 9.473302e-04 8.873153e-04
          3.678975e-04 -6.715044e-04 -8.255966e-04 -8.359462e-04 -8.268264e-04 -7.899964e-04
          -5.490934e-04 -3.700279e-04 -3.244485e-04 -2.999451e-04 -5.656885e-04 -8.887942e-04
          -9.259628e-04 -9.238831e-04 -8.500280e-04 -3.826552e-04 -3.567919e-04 -3.579883e-04
          -3.836163e-04 -9.021735e-04 -9.640564e-04 -9.543775e-04 -9.323491e-04 -8.713312e-04
          -5.933266e-04 -3.388148e-04 -3.137352e-04 -3.132455e-04 -2.996254e-04 -2.601939e-04
          -2.346539e-04 -2.702630e-04 -3.648360e-04 -6.223907e-04 -6.965952e-04 -7.575928e-04
          -8.058892e-04 -8.117000e-04 -8.088295e-04 -8.109305e-04 -8.135463e-04 -8.368218e-04
          6.355071e-04 6.522074e-04 6.732679e-04 6.749536e-04 6.641533e-04 6.270607e-04
          1.988887e-04 -6.975915e-04 -9.002005e-04 -9.938616e-04 -1.000831e-03 -9.314715e-04
          -5.092976e-04 -2.210463e-04 -1.650860e-04 -1.418521e-04 -3.496218e-04 -6.171184e-04
          -6.499208e-04 -6.511427e-04 -6.032270e-04 -2.128282e-04 -1.805156e-04 -1.805687e-04
          -2.015420e-04 -6.239162e-04 -6.702686e-04 -6.604472e-04 -6.400304e-04 -5.871454e-04
          -3.675108e-04 -1.635078e-04 -1.429096e-04 -1.437025e-04 -1.369995e-04 -1.077199e-04
          -8.159292e-05 -1.051113e-04 -1.865145e-04 -4.776623e-04 -7.605494e-04 -9.378413e-04
          -9.991417e-04 -1.005285e-03 -9.996451e-04 -9.989844e-04 -9.982982e-04 -9.828266e-04
          2.365767e-04 4.518638e-04 5.393277e-04 4.419996e-04 3.446954e-04 1.928386e-04
          1.316537e-04 -6.507378e-04 -8.297687e-04 -1.024029e-03 -9.585017e-04 -8.913153e-04
          -3.285279e-04 1.348405e-04 -5.207270e-05 -3.162012e-04 4.678959e-06 -1.189417e-04
          -1.647533e-04 -1.416770e-04 -2.703313e-04 1.524020e-04 7.814836e-05 5.771568e-05
          3.111957e-05 -3.774281e-04 -3.209751e-04 -2.575805e-04 -1.521550e-04 -3.203603e-05
          -1.339176e-04 -1.861202e-04 -2.120480e-04 -1.695779e-04 -6.202505e-05 7.398612e-05
          1.829262e-04 4.311671e-04 5.084504e-04 -6.891330e-04 -4.977210e-04 -7.198678e-04
          -9.055982e-04 -8.679299e-04 -8.429178e-04 -8.963050e-04 -9.612946e-04 -1.125661e-03
          6.728996e-05 -9.813345e-05 -1.451374e-04 -5.310700e-05 3.505961e-05 1.722092e-04
          -1.848791e-04 -4.597796e-04 -6.934640e-04 -8.301869e-04 -9.339572e-04 -8.178595e-04
          -2.884817e-04 -3.138042e-05 2.432158e-04 5.092630e-04 3.292763e-06 -1.920925e-04
          -1.924195e-04 -2.217737e-04 -7.456885e-05 1.005452e-05 1.440929e-04 1.652476e-04
          1.653473e-04 5.780853e-05 -3.842649e-05 -8.142833e-05 -1.493420e-04 -1.926123e-04
          1.331137e-04 4.018596e-04 4.476230e-04 4.051579e-04 3.004701e-04 1.930881e-04
          1.297192e-04 -1.046651e-04 -2.736340e-04 2.898964e-04 -7.750982e-04 -1.080100e-03
          -1.024081e-03 -1.066273e-03 -1.073874e-03 -1.017975e-03 -9.506888e-04 -6.950669e-04
          4.354212e-05 2.061308e-04 2.717541e-04 1.988226e-04 1.287261e-04 2.513365e-05
          2.562807e-05 -4.857497e-04 -6.364785e-04 -8.152453e-04 -7.725392e-04 -7.093720e-04
          -2.167272e-04 1.729538e-04 3.585308e-05 -1.638427e-04 1.028553e-04 3.556547e-05
          3.348553e-06 1.939205e-05 -8.797916e-05 1.947244e-04 1.413920e-04 1.265478e-04
          1.086274e-04 -1.550215e-04 -1.059903e-04 -5.850766e-05 1.977922e-05 1.060534e-04
          3.648503e-06 -5.820336e-05 -7.979253e-05 -4.835561e-05 2.925006e-05 1.264086e-04
          2.078068e-04 3.997375e-04 4.642065e-04 -4.459927e-04 -3.855515e-04 -5.973817e-04
          -7.409593e-04 -7.125928e-04 -6.927397e-04 -7.316241e-04 -7.791306e-04 -8.867512e-04
          2.710685e-04 4.376641e-04 5.059609e-04 4.310982e-04 3.543675e-04 2.311350e-04
          1.415471e-04 -5.409731e-04 -6.833498e-04 -8.250880e-04 -7.723531e-04 -7.219461e-04
          -2.942732e-04 6.119241e-05 -8.121107e-05 -2.828556e-04 -5.637098e-05 -1.757292e-04
          -2.135980e-04 -1.953334e-04 -2.880088e-04 7.176897e-05 1.520791e-05 -7.107014e-07
          -2.315674e-05 -3.767863e-04 -3.382578e-04 -2.888386e-04 -2.061204e-04 -1.092951e-04
          -1.663173e-04 -1.870164e-04 -2.050548e-04 -1.720959e-04 -8.769378e-05 2.082609e-05
          1.064684e-04 2.943263e-04 3.470563e-04 -5.868090e-04 -4.204455e-04 -5.830826e-04
          -7.280591e-04 -6.994377e-04 -6.803843e-04 -7.218828e-04 -7.725453e-04 -9.047108e-04
          5.771827e-04 3.632458e-04 3.016578e-04 4.174746e-04 5.175979e-04 6.512522e-04
          4.414602e-05 -5.388359e-04 -7.516281e-04 -7.842772e-04 -8.886381e-04 -8.002637e-04
          -4.581437e-04 -3.314983e-04 -2.667050e-06 3.382835e-04 -3.798296e-04 -6.996060e-04
          -7.052495e-04 -7.370446e-04 -5.153656e-04 -3.145176e-04 -1.588597e-04 -1.340771e-04
          -1.398733e-04 -3.993189e-04 -5.415992e-04 -5.963527e-04 -6.805617e-04 -7.253896e-04
          -2.359582e-04 1.711423e-04 2.354818e-04 1.839318e-04 6.379670e-05 -5.320481e-05
          -1.329674e-04 -4.493689e-04 -6.803214e-04 1.065448e-04 -8.717917e-04 -1.060219e-03
          -9.687830e-04 -1.022336e-03 -1.037184e-03 -9.712877e-04 -8.918116e-04 -6.339544e-04
          5.527331e-04 8.758702e-04 1.001000e-03 8.486826e-04 6.916751e-04 4.350824e-04
          3.758624e-04 -6.826789e-04 -8.014756e-04 -9.365590e-04 -8.073931e-04 -7.847596e-04
          -3.822126e-04 3.824342e-05 -2.919259e-04 -7.078424e-04 -1.962383e-04 -3.452889e-04
          -4.077631e-04 -3.665372e-04 -5.531962e-04 2.989797e-05 -1.112225e-04 -1.447109e-04
          -1.828649e-04 -7.578648e-04 -6.701892e-04 -5.761255e-04 -4.192122e-04 -2.452920e-04
          -4.222679e-04 -5.251628e-04 -5.680182e-04 -4.997640e-04 -3.244200e-04 -1.083108e-04
          5.028896e-05 4.273020e-04 5.649434e-04 -1.108067e-03 -3.591533e-04 -4.510280e-04
          -6.952110e-04 -6.342839e-04 -6.025000e-04 -6.900681e-04 -7.963999e-04 -1.117636e-03
          5.576197e-04 5.264317e-04 5.286858e-04 5.536782e-04 5.671149e-04 5.701346e-04
          1.498309e-04 -6.002318e-04 -7.886165e-04 -8.638439e-04 -8.902472e-04 -8.189576e-04
          -4.258293e-04 -1.800528e-04 -7.253089e-05 1.101096e-05 -2.976801e-04 -5.689263e-04
          -5.949701e-04 -6.021867e-04 -5.164898e-04 -1.697702e-04 -1.124429e-04 -1.073088e-04
          -1.248792e-04 -5.079132e-04 -5.742706e-04 -5.783018e-04 -5.800535e-04 -5.488256e-04
          -2.770335e-04 -3.551739e-05 -7.080575e-06 -1.813860e-05 -3.874815e-05 -4.386116e-05
          -4.294544e-05 -1.238363e-04 -2.322777e-04 -2.946026e-04 -7.154148e-04 -8.835337e-04
          -9.072850e-04 -9.217939e-04 -9.202456e-04 -9.061568e-04 -8.893755e-04 -8.245817e-04
          3.066537e-04 3.388005e-04 3.614842e-04 3.553721e-04 3.447468e-04 3.221902e-04
          6.990296e-05 -5.607836e-04 -7.497480e-04 -8.803313e-04 -8.886514e-04 -8.064512e-04
          -3.042847e-04 3.555308e-05 6.832615e-05 5.720876e-05 -7.615226e-05 -2.932455e-04
          -3.226530e-04 -3.230088e-04 -2.952612e-04 5.576476e-05 8.323891e-05 8.238818e-05
          6.355144e-05 -3.041966e-04 -3.366970e-04 -3.240286e-04 -2.992986e-04 -2.480704e-04
          -8.540660e-05 6.776793e-05 8.021078e-05 8.242993e-05 9.036207e-05 1.123920e-04
          1.370150e-04 1.466706e-04 9.127950e-05 -2.736596e-04 -6.197360e-04 -8.343385e-04
          -8.975581e-04 -8.972384e-04 -8.883231e-04 -8.902415e-04 -8.930687e-04 -8.725885e-04
          -4.541247e-05 -1.340364e-07 2.357821e-05 1.061408e-05 1.566875e-06 -3.677506e-06
          -7.572216e-05 -4.247391e-04 -6.032836e-04 -7.762661e-04 -7.881845e-04 -6.920812e-04
          -1.063179e-04 2.856192e-04 2.982356e-04 2.566550e-04 2.048725e-04 5.030389e-05
          2.570093e-05 2.557692e-05 2.962287e-05 3.192448e-04 3.424250e-04 3.410329e-04
          3.255870e-04 3.667540e-05 2.053680e-05 3.531954e-05 6.271824e-05 1.093369e-04
          2.049715e-04 2.983613e-04 3.023240e-04 3.069178e-04 3.146883e-04 3.279661e-04
          3.506240e-04 3.916287e-04 3.637241e-04 -5.982713e-05 -4.842578e-04 -7.442480e-04
          -8.093530e-04 -8.033682e-04 -7.913739e-04 -7.950847e-04 -8.004196e-04 -7.698314e-04
          -1.249781e-04 -1.125652e-04 -1.049823e-04 -1.040877e-04 -9.750459e-05 -7.679856e-05
          -8.357263e-05 -2.118405e-04 -3.253805e-04 -4.406223e-04 -4.574250e-04 -3.807527e-04
          6.706043e-05 3.552264e-04 3.854926e-04 3.735511e-04 2.614245e-04 1.169713e-04
          9.933441e-05 9.717451e-05 1.323903e-04 3.819836e-04 4.151564e-04 4.165995e-04
          4.037828e-04 1.493497e-04 1.189768e-04 1.234035e-04 1.348031e-04 1.644360e-04
          2.900518e-04 4.016088e-04 4.088603e-04 4.077814e-04 3.990917e-04 3.867042e-04
          3.868383e-04 3.933713e-04 3.556623e-04 1.218571e-04 -2.802425e-04 -4.618891e-04
          -4.857495e-04 -4.825766e-04 -4.744939e-04 -4.708704e-04 -4.675484e-04 -4.225642e-04
          -2.038158e-06 -1.463784e-05 -1.977760e-05 -9.920245e-06 2.887539e-06 2.598975e-05
          1.836600e-05 -1.668897e-05 -4.171953e-05 -5.434361e-05 -6.280523e-05 -2.743487e-05
          1.679399e-04 2.878592e-04 3.194689e-04 3.283261e-04 1.536250e-04 -6.380638e-07
          -1.410837e-05 -1.534655e-05 5.308340e-05 2.946070e-04 3.269835e-04 3.294828e-04
          3.170489e-04 5.611357e-05 1.003397e-05 6.813904e-06 7.067216e-06 2.678175e-05
          1.935741e-04 3.349484e-04 3.460559e-04 3.420934e-04 3.272657e-04 3.041892e-04
          2.881005e-04 2.641250e-04 2.167559e-04 1.569072e-04 -6.016651e-05 -9.723571e-05
          -8.170589e-05 -8.025075e-05 -7.729558e-05 -7.082268e-05 -6.404131e-05 -3.774866e-05
          4.332144e-05 9.281984e-05 1.076797e-04 8.421573e-05 6.351140e-05 3.212245e-05
          1.001621e-04 5.518307e-05 8.635795e-05 1.070560e-04 1.344580e-04 1.361375e-04
          1.903786e-04 2.514558e-04 1.906707e-04 1.073509e-04 1.033493e-04 -1.456682e-07
          -1.638126e-05 -7.424103e-06 7.690433e-06 2.449621e-04 2.314585e-04 2.262710e-04
          2.123956e-04 -3.771163e-05 -5.084261e-05 -3.722741e-05 -1.032829e-05 2.951798e-05
          9.179792e-05 1.494581e-04 1.458262e-04 1.571149e-04 1.813081e-04 2.017270e-04
          2.130037e-04 2.718087e-04 2.785925e-04 -1.556483e-05 1.173451e-04 1.628811e-04
          1.484937e-04 1.639623e-04 1.702273e-04 1.565109e-04 1.390844e-04 7.625003e-05
          1.279198e-04 5.078318e-05 2.193487e-05 6.035123e-05 9.651051e-05 1.469948e-04
          5.970222e-05 9.722228e-05 1.235673e-04 1.930320e-04 1.704723e-04 1.708187e-04
          1.157194e-04 4.856299e-05 1.358953e-04 2.329606e-04 -3.768522e-05 -1.578160e-04
          -1.581650e-04 -1.656551e-04 -6.303089e-05 4.112296e-05 8.917036e-05 9.706831e-05
          9.294130e-05 -4.022747e-05 -1.009812e-04 -1.223057e-04 -1.530229e-04 -1.686254e-04
          2.689629e-05 1.845961e-04 2.051324e-04 1.888955e-04 1.476478e-04 9.657660e-05
          5.461472e-05 -5.053403e-05 -1.239917e-04 1.968008e-04 2.193367e-05 8.258569e-05
          1.479915e-04 1.355997e-04 1.292012e-04 1.500175e-04 1.747683e-04 2.347227e-04
          6.259199e-05 1.547236e-04 1.844723e-04 1.376948e-04 9.282164e-05 2.203995e-05
          1.313284e-04 7.166866e-05 1.307129e-04 1.617644e-04 2.113815e-04 1.877610e-04
          1.312838e-04 1.421233e-04 1.872103e-05 -1.222685e-04 3.313007e-05 7.177078e-06
          -7.083856e-06 7.952257e-06 -3.291074e-05 1.282581e-04 7.839700e-05 6.787905e-05
          5.698769e-05 -1.056750e-04 -8.367194e-05 -5.835437e-05 -1.482907e-05 3.178156e-05
          -2.234500e-05 -5.984041e-05 -7.574364e-05 -5.416614e-05 -2.011963e-06 5.230226e-05
          8.660345e-05 2.037579e-04 2.571164e-04 -1.744125e-04 2.047920e-04 2.910289e-04
          2.492965e-04 2.724540e-04 2.803022e-04 2.526057e-04 2.187699e-04 9.877088e-05
          -1.187480e-04 -1.725285e-04 -1.919884e-04 -1.638262e-04 -1.327795e-04 -7.924535e-05
          -8.316665e-05 3.229852e-05 8.611462e-06 -8.032393e-06 -3.712117e-05 -9.995228e-06
          1.003430e-04 1.428251e-04 2.159331e-04 2.864268e-04 1.301395e-04 8.024535e-05
          8.266675e-05 7.456668e-05 1.299739e-04 1.538360e-04 1.944820e-04 2.011044e-04
          2.013010e-04 1.705293e-04 1.374637e-04 1.223072e-04 9.914158e-05 8.256264e-05
          1.840544e-04 2.638406e-04 2.758483e-04 2.629425e-04 2.277311e-04 1.834949e-04
          1.541530e-04 8.640013e-05 4.125608e-05 2.424686e-04 -5.346176e-05 -1.042222e-04
          -6.835700e-05 -7.785796e-05 -8.020990e-05 -6.287477e-05 -4.230806e-05 3.190440e-05
          -2.803872e-04 -3.022792e-04 -3.063880e-04 -2.884292e-04 -2.627798e-04 -2.069936e-04
          -2.005947e-04 -2.066342e-04 -3.453008e-04 -4.933536e-04 -5.332620e-04 -4.429492e-04
          5.037836e-05 3.468766e-04 4.223902e-04 4.617158e-04 3.307551e-04 2.378070e-04
          2.295991e-04 2.207544e-04 2.567793e-04 3.848455e-04 4.353720e-04 4.410238e-04
          4.357400e-04 3.124003e-04 2.838134e-04 2.783708e-04 2.715643e-04 2.767284e-04
          3.824579e-04 4.725287e-04 4.826358e-04 4.731335e-04 4.428818e-04 4.061520e-04
          3.928473e-04 3.615775e-04 3.150785e-04 2.539156e-04 -3.317985e-04 -5.717475e-04
          -5.813398e-04 -5.867583e-04 -5.811918e-04 -5.665427e-04 -5.497680e-04 -4.490131e-04
          -3.318461e-04 -4.084191e-05 6.447842e-05 -7.226942e-05 -1.937254e-04 -3.586051e-04
          -3.492997e-05 -3.366769e-04 -4.466588e-04 -6.814639e-04 -5.906984e-04 -5.221211e-04
          1.002544e-04 6.266816e-04 3.279550e-04 -7.172752e-05 4.927071e-04 4.768597e-04
          4.329510e-04 4.656445e-04 2.694092e-04 6.563471e-04 5.416851e-04 5.140100e-04
          4.881071e-04 1.451076e-04 2.454174e-04 3.268313e-04 4.613344e-04 5.976059e-04
          3.357413e-04 1.469542e-04 9.614603e-05 1.556333e-04 2.941698e-04 4.475132e-04
          5.724744e-04 9.437336e-04 1.104322e-03 -4.228968e-04 -9.777448e-05 -3.242721e-04
          -5.338268e-04 -4.727337e-04 -4.386304e-04 -5.117776e-04 -6.015758e-04 -8.244816e-04
          -2.448540e-04 -3.433039e-04 -3.738297e-04 -3.168216e-04 -2.540046e-04 -1.423737e-04
          -2.303495e-04 -2.075218e-04 -3.663906e-04 -5.005955e-04 -5.738012e-04 -4.686865e-04
          4.812416e-05 3.240817e-04 4.974468e-04 6.445782e-04 3.072580e-04 1.573695e-04
          1.539886e-04 1.348937e-04 2.406730e-04 3.658346e-04 4.631989e-04 4.773282e-04
          4.739047e-04 3.395127e-04 2.699038e-04 2.434530e-04 2.036807e-04 1.830443e-04
          4.155681e-04 6.060476e-04 6.335644e-04 6.068092e-04 5.335360e-04 4.481894e-04
          3.999157e-04 2.669260e-04 1.589922e-04 4.261888e-04 -4.307940e-04 -6.890155e-04
          -6.505309e-04 -6.719127e-04 -6.724020e-04 -6.354700e-04 -5.918839e-04 -4.077394e-04
          -2.281927e-04 -2.286569e-04 -2.334978e-04 -2.315612e-04 -2.221246e-04 -1.955314e-04
          -6.019426e-05 1.452654e-04 1.615446e-04 1.494559e-04 1.457926e-04 1.701059e-04
          3.072870e-04 3.913141e-04 3.925381e-04 3.732646e-04 2.974870e-04 2.254711e-04
          2.193474e-04 2.197946e-04 2.591188e-04 4.003333e-04 4.177995e-04 4.189501e-04
          4.116969e-04 2.652858e-04 2.404498e-04 2.391873e-04 2.412427e-04 2.525020e-04
          3.337242e-04 3.996451e-04 4.015882e-04 4.010126e-04 3.912689e-04 3.681499e-04
          3.525729e-04 3.573430e-04 3.434879e-04 2.747833e-04 1.273326e-04 1.095019e-04
          1.274753e-04 1.337026e-04 1.373354e-04 1.398326e-04 1.417685e-04 1.566345e-04
          -2.193026e-04 -1.612879e-04 -1.523417e-04 -1.844901e-04 -2.081274e-04 -2.347514e-04
          5.863018e-05 4.273765e-04 5.776194e-04 6.638687e-04 7.065589e-04 6.695766e-04
          5.058142e-04 4.283987e-04 3.169930e-04 1.932564e-04 2.842491e-04 2.713146e-04
          2.653448e-04 2.785527e-04 2.782251e-04 4.128080e-04 3.773791e-04 3.703392e-04
          3.615246e-04 2.232831e-04 2.267080e-04 2.400958e-04 2.665486e-04 2.947078e-04
          2.762178e-04 2.585597e-04 2.438588e-04 2.597322e-04 2.897458e-04 3.041219e-04
          3.062105e-04 3.956127e-04 4.439322e-04 1.978928e-04 5.479839e-04 7.143489e-04
          7.274247e-04 7.513191e-04 7.565509e-04 7.372875e-04 7.129247e-04 6.152117e-04
          -2.148203e-04 -4.841844e-04 -5.889657e-04 -4.579205e-04 -3.250944e-04 -1.139868e-04
          -1.508880e-04 5.175890e-04 6.111333e-04 7.586260e-04 6.587033e-04 6.603117e-04
          4.510123e-04 1.886227e-04 4.779994e-04 8.160540e-04 1.694162e-04 6.472949e-05
          9.460234e-05 6.316834e-05 3.069594e-04 1.886560e-04 3.325464e-04 3.609819e-04
          3.729709e-04 4.487628e-04 3.152998e-04 2.379386e-04 1.169346e-04 9.750775e-06
          3.851368e-04 6.677356e-04 7.176016e-04 6.604753e-04 5.107100e-04 3.226732e-04
          1.801003e-04 -1.522157e-04 -3.253816e-04 9.354691e-04 2.389408e-04 3.457552e-04
          5.626937e-04 5.165449e-04 4.931723e-04 5.673006e-04 6.561581e-04 9.116845e-04
          -4.485727e-04 -2.056942e-04 -1.318107e-04 -2.562202e-04 -3.646983e-04 -5.113699e-04
          3.430148e-05 3.604272e-04 5.114707e-04 5.030915e-04 6.137910e-04 5.688613e-04
          5.036932e-04 5.708305e-04 2.381441e-04 -1.412004e-04 4.592589e-04 5.945062e-04
          5.771512e-04 6.125128e-04 4.343053e-04 5.606457e-04 4.211186e-04 3.947384e-04
          3.826417e-04 2.957373e-04 4.023869e-04 4.664940e-04 5.719475e-04 6.606290e-04
          3.224894e-04 5.146031e-05 -5.846885e-06 5.020210e-05 1.781416e-04 3.032613e-04
          3.905287e-04 7.276345e-04 9.236446e-04 -1.491755e-04 6.841289e-04 8.040954e-04
          6.900279e-04 7.512536e-04 7.731883e-04 7.028864e-04 6.170525e-04 3.479303e-04
          -3.609492e-04 -3.736898e-04 -3.846956e-04 -3.815838e-04 -3.712043e-04 -3.417168e-04
          -1.360662e-04 2.905616e-04 3.585959e-04 3.728979e-04 3.679487e-04 3.535858e-04
          2.546699e-04 1.786760e-04 1.678048e-04 1.648795e-04 2.358549e-04 3.434424e-04
          3.573488e-04 3.561346e-04 3.410695e-04 1.826315e-04 1.778255e-04 1.790421e-04
          1.879063e-04 3.624503e-04 3.783953e-04 3.724803e-04 3.613867e-04 3.373673e-04
          2.553214e-04 1.774964e-04 1.697707e-04 1.681549e-04 1.585930e-04 1.369377e-04
          1.215886e-04 1.261404e-04 1.551800e-04 2.813386e-04 2.945494e-04 3.296377e-04
          3.571345e-04 3.589047e-04 3.574274e-04 3.600812e-04 3.632801e-04 3.768384e-04
          -2.509246e-04 -3.025545e-04 -3.237147e-04 -3.018169e-04 -2.774094e-04 -2.324513e-04
          -1.468848e-04 1.900418e-04 2.282375e-04 2.416135e-04 2.188385e-04 2.011580e-04
          5.164390e-05 -7.422412e-05 -3.367639e-05 3.216137e-05 6.396867e-05 2.072651e-04
          2.292442e-04 2.217133e-04 2.092614e-04 -7.025643e-05 -6.213839e-05 -5.713952e-05
          -4.098472e-05 2.553065e-04 2.711946e-04 2.552224e-04 2.251487e-04 1.775795e-04
          8.950806e-05 4.589068e-06 3.424863e-06 -7.110471e-06 -3.360764e-05 -6.659329e-05
          -8.924583e-05 -1.377491e-04 -1.271888e-04 2.130476e-04 1.486861e-04 1.642390e-04
          2.019453e-04 1.910310e-04 1.845328e-04 1.975043e-04 2.137950e-04 2.680803e-04
          -2.955954e-04 -1.480696e-04 -1.000169e-04 -1.772762e-04 -2.470359e-04 -3.433739e-04
          -4.366473e-05 1.335067e-04 2.001759e-04 1.652402e-04 2.269257e-04 1.897868e-04
          8.994027e-05 8.949376e-05 -1.122366e-04 -3.270172e-04 1.627435e-04 3.715896e-04
          3.726274e-04 3.917503e-04 2.267420e-04 8.676179e-05 -1.345877e-05 -2.987799e-05
          -2.553812e-05 1.576951e-04 2.593948e-04 2.985086e-04 3.576580e-04 3.908456e-04
          5.344377e-05 -2.225925e-04 -2.636995e-04 -2.300778e-04 -1.482645e-04 -5.961308e-05
          5.720720e-06 2.151768e-04 3.626409e-04 -2.151305e-04 3.298815e-04 3.663335e-04
          2.784990e-04 3.100474e-04 3.212797e-04 2.778693e-04 2.258087e-04 7.070564e-05
          -1.367705e-04 -2.533474e-04 -2.955703e-04 -2.398191e-04 -1.846755e-04 -9.668033e-05
          -1.386460e-04 1.305496e-04 1.378642e-04 1.627295e-04 1.120668e-04 1.107123e-04
          4.456406e-06 -1.222429e-04 7.045174e-06 1.680506e-04 -4.711193e-06 5.811472e-05
          8.071761e-05 6.453660e-05 1.200712e-04 -1.161887e-04 -6.491666e-05 -5.271432e-05
          -3.746148e-05 1.985229e-04 1.727362e-04 1.394349e-04 8.287581e-05 1.889812e-05
          6.779404e-05 9.453761e-05 1.108182e-04 8.536656e-05 2.284246e-05 -4.890531e-05
          -9.973869e-05 -2.394637e-04 -2.910561e-04 3.086894e-04 2.064158e-06 -3.161041e-06
          7.212902e-05 4.698902e-05 3.557331e-05 6.765430e-05 1.068953e-04 2.310862e-04
          4.522401e-06 1.474112e-04 1.959329e-04 1.223182e-04 5.035321e-05 -6.085636e-05
          1.021256e-04 3.302468e-05 9.339517e-05 9.671529e-05 1.648854e-04 1.239693e-04
          5.690092e-06 -1.580640e-06 -1.912203e-04 -3.946309e-04 -1.477769e-05 8.635393e-05
          7.725413e-05 9.767271e-05 -2.825662e-05 -1.547784e-05 -1.072853e-04 -1.236312e-04
          -1.276810e-04 -1.187882e-04 -4.419036e-05 -5.071828e-06 5.694127e-05 1.059740e-04
          -1.244467e-04 -3.065109e-04 -3.387173e-04 -3.057915e-04 -2.227748e-04 -1.285877e-04
          -6.355327e-05 1.252768e-04 2.402437e-04 -3.565617e-04 2.323749e-04 3.097293e-04
          2.251199e-04 2.553259e-04 2.657610e-04 2.227665e-04 1.710321e-04 1.106536e-06
          2.719598e-05 -3.523777e-05 -5.617116e-05 -2.496221e-05 3.968860e-06 4.694122e-05
          -3.572680e-05 -1.166987e-05 -2.948825e-05 -2.086694e-05 -4.841553e-05 -4.131100e-05
          -5.126604e-05 -8.713641e-05 -8.932150e-06 8.211273e-05 -5.320356e-05 -6.604948e-05
          -5.894567e-05 -6.767355e-05 -2.503497e-05 -8.419369e-05 -5.088650e-05 -4.417741e-05
          -3.961398e-05 1.266210e-05 -1.128339e-05 -2.843713e-05 -5.655435e-05 -8.303676e-05
          -1.415584e-05 3.849261e-05 5.092086e-05 3.684893e-05 3.246876e-06 -3.287120e-05
          -5.847308e-05 -1.398994e-04 -1.819382e-04 1.082011e-04 -8.868419e-05 -1.052059e-04
          -6.948861e-05 -8.378644e-05 -8.936512e-05 -7.166149e-05 -5.009025e-05 1.769640e-05
          -8.536166e-05 -1.929475e-05 5.017886e-06 -2.571067e-05 -5.276122e-05 -8.874203e-05
          -1.815338e-05 -9.477796e-05 -1.286057e-04 -1.910165e-04 -1.721608e-04 -1.523024e-04
          1.329968e-05 1.478862e-04 8.290138e-05 -6.615000e-06 1.210653e-04 1.165579e-04
          1.063219e-04 1.133804e-04 6.779403e-05 1.565868e-04 1.320859e-04 1.259264e-04
          1.200426e-04 4.212344e-05 6.513113e-05 8.362037e-05 1.142193e-04 1.454477e-04
          8.605358e-05 4.357213e-05 3.222554e-05 4.545637e-05 7.621646e-05 1.106176e-04
          1.394500e-04 2.235616e-04 2.590440e-04 -9.431524e-05 -4.574906e-05 -1.111945e-04
          -1.609770e-04 -1.474580e-04 -1.393695e-04 -1.555970e-04 -1.755262e-04 -2.219397e-04
          -2.667977e-05 3.185780e-05 5.391031e-05 2.766364e-05 4.389470e-06 -2.788448e-05
          8.924795e-06 -1.178186e-04 -1.580271e-04 -2.145340e-04 -1.979206e-04 -1.731947e-04
          1.577118e-05 1.632607e-04 1.111612e-04 3.230234e-05 1.044242e-04 5.721475e-05
          4.373811e-05 5.016340e-05 2.469875e-05 1.709881e-04 1.552845e-04 1.500140e-04
          1.411599e-04 -1.486684e-06 8.187631e-06 2.487751e-05 5.373259e-05 8.862007e-05
          7.792794e-05 7.683444e-05 6.969897e-05 8.118857e-05 1.074718e-04 1.368475e-04
          1.614040e-04 2.318036e-04 2.512103e-04 -9.112072e-05 -8.051486e-05 -1.450725e-04
          -1.893922e-04 -1.770420e-04 -1.692120e-04 -1.829903e-04 -2.001613e-04 -2.403010e-04
          -8.412792e-05 -1.232350e-04 -1.345065e-04 -1.118892e-04 -8.735373e-05 -4.468773e-05
          -9.519122e-05 -1.117293e-04 -1.836365e-04 -2.433104e-04 -2.736334e-04 -2.311922e-04
          -2.210504e-05 8.994003e-05 1.607908e-04 2.224188e-04 9.829377e-05 4.801284e-05
          4.731150e-05 3.933899e-05 7.546331e-05 1.071178e-04 1.450192e-04 1.506108e-04
          1.501914e-04 1.165648e-04 9.237639e-05 8.199167e-05 6.575833e-05 5.622936e-05
          1.377758e-04 2.046866e-04 2.153992e-04 2.046816e-04 1.761017e-04 1.442718e-04
          1.271723e-04 7.375953e-05 3.212090e-05 1.419461e-04 -2.027682e-04 -3.150525e-04
          -3.035588e-04 -3.129895e-04 -3.134526e-04 -2.986579e-04 -2.810757e-04 -2.059857e-04
          -1.974708e-04 -1.947956e-04 -1.910363e-04 -1.895906e-04 -1.838273e-04 -1.655806e-04
          -1.422968e-04 -1.315623e-04 -2.106805e-04 -3.075297e-04 -3.257678e-04 -2.839045e-04
          -4.754890e-05 9.849425e-05 1.196090e-04 1.258477e-04 1.543996e-04 1.764469e-04
          1.768106e-04 1.729216e-04 1.529537e-04 1.203871e-04 1.319138e-04 1.332476e-04
          1.355294e-04 1.831490e-04 1.927832e-04 1.937595e-04 1.937218e-04 1.913920e-04
          1.614914e-04 1.374045e-04 1.361052e-04 1.342480e-04 1.274600e-04 1.209695e-04
          1.250274e-04 1.307719e-04 1.318316e-04 7.099161e-05 -1.808582e-04 -3.235953e-04
          -3.449800e-04 -3.469506e-04 -3.438168e-04 -3.403115e-04 -3.361048e-04 -2.928500e-04
          -1.412041e-04 -6.461471e-06 4.333054e-05 -2.243004e-05 -8.322185e-05 -1.697450e-04
          -3.143897e-05 -1.557198e-04 -1.952895e-04 -2.958238e-04 -2.522159e-04 -2.422114e-04
          -8.017981e-05 8.249807e-05 -6.549230e-05 -2.436104e-04 1.138226e-04 2.049694e-04
          1.941944e-04 2.089091e-04 7.851832e-05 9.213380e-05 2.247544e-05 8.883035e-06
          5.586635e-06 2.400210e-05 9.758511e-05 1.352003e-04 1.934975e-04 2.404954e-04
          1.952726e-05 -1.531106e-04 -1.821328e-04 -1.538581e-04 -8.419471e-05 -2.407664e-06
          6.304199e-05 2.394372e-04 3.386899e-04 -2.919982e-04 -2.763378e-05 -1.127856e-04
          -2.161833e-04 -1.908643e-04 -1.778467e-04 -2.135473e-04 -2.565442e-04 -3.677633e-04
          2.379632e-04 1.068277e-04 6.339493e-05 1.271353e-04 1.819812e-04 2.534685e-04
          1.799398e-05 -2.098393e-05 -2.943066e-05 3.744675e-05 -1.050386e-05 -2.190300e-05
          -1.901665e-04 -3.550810e-04 -2.012561e-04 -7.555152e-06 -2.857826e-04 -3.076793e-04
          -2.919713e-04 -3.085270e-04 -2.205819e-04 -3.624681e-04 -3.029736e-04 -2.899421e-04
          -2.798549e-04 -1.587674e-04 -2.069312e-04 -2.424991e-04 -3.016972e-04 -3.581012e-04
          -2.191578e-04 -1.130316e-04 -8.657425e-05 -1.147326e-04 -1.783483e-04 -2.430525e-04
          -2.931567e-04 -4.682672e-04 -5.543691e-04 9.613057e-05 -1.539964e-04 -1.174768e-04
          -3.948106e-05 -7.025862e-05 -8.475193e-05 -5.003386e-05 -7.379801e-06 1.088135e-04
          3.592816e-04 5.904501e-04 6.712199e-04 5.518941e-04 4.279503e-04 2.209327e-04
          3.374763e-04 -3.273283e-05 7.669172e-05 1.402836e-04 2.630644e-04 1.759943e-04
          -1.274294e-04 -2.023370e-04 -5.106221e-04 -8.329974e-04 -2.838058e-04 -1.915924e-04
          -2.134027e-04 -1.778870e-04 -3.589127e-04 -2.422851e-04 -3.939326e-04 -4.214165e-04
          -4.336520e-04 -5.343916e-04 -4.293837e-04 -3.647550e-04 -2.610614e-04 -1.696950e-04
          -4.759307e-04 -7.108417e-04 -7.568932e-04 -7.024380e-04 -5.603568e-04 -3.932171e-04
          -2.832804e-04 8.244455e-06 1.745297e-04 -7.912159e-04 3.147344e-04 5.151242e-04
          3.788587e-04 4.265471e-04 4.411063e-04 3.692328e-04 2.829293e-04 -2.370049e-05
          3.843912e-04 3.720186e-04 3.734148e-04 3.812118e-04 3.801369e-04 3.625899e-04
          1.394430e-04 -2.320415e-04 -2.773268e-04 -2.611763e-04 -2.621606e-04 -2.623853e-04
          -2.670512e-04 -2.683724e-04 -2.373786e-04 -2.009696e-04 -2.971365e-04 -3.786772e-04
          -3.861914e-04 -3.874541e-04 -3.634689e-04 -2.772881e-04 -2.675639e-04 -2.667121e-04
          -2.713657e-04 -3.751443e-04 -3.936970e-04 -3.950999e-04 -3.966391e-04 -3.882772e-04
          -3.073181e-04 -2.338513e-04 -2.234424e-04 -2.264943e-04 -2.272902e-04 -2.169551e-04
          -2.117699e-04 -2.462241e-04 -2.817208e-04 -2.533260e-04 -2.476435e-04 -2.453085e-04
          -2.530992e-04 -2.602354e-04 -2.624884e-04 -2.596130e-04 -2.558451e-04 -2.555659e-04
          -9.063825e-05 -7.444966e-05 -6.186454e-05 -6.499284e-05 -6.607139e-05 -6.172901e-05
          -1.236495e-04 -3.162208e-04 -4.516313e-04 -5.881893e-04 -6.070187e-04 -5.479928e-04
          -2.016202e-04 2.199796e-05 4.613460e-05 4.751557e-05 8.035797e-05 7.453533e-05
          6.906778e-05 6.531570e-05 3.516175e-05 4.865171e-05 6.042446e-05 6.076022e-05
          6.040857e-05 6.181574e-05 7.372892e-05 7.950731e-05 8.724654e-05 9.610323e-05
          7.299257e-05 5.980012e-05 5.974721e-05 5.949286e-05 5.927244e-05 6.659354e-05
          8.331978e-05 9.805628e-05 9.363238e-05 -6.748238e-05 -3.734564e-04 -5.772205e-04
          -6.238603e-04 -6.264804e-04 -6.212209e-04 -6.199664e-04 -6.184914e-04 -5.752345e-04
          -4.781000e-04 -4.745030e-04 -4.700178e-04 -4.674327e-04 -4.545132e-04 -4.124212e-04
          -3.037166e-04 -1.587468e-04 -2.862698e-04 -4.638429e-04 -4.982312e-04 -4.230170e-04
          -1.453864e-06 2.557862e-04 2.897907e-04 2.964241e-04 3.689731e-04 4.354607e-04
          4.393208e-04 4.320845e-04 3.916009e-04 2.981922e-04 3.181589e-04 3.207548e-04
          3.268707e-04 4.524475e-04 4.740891e-04 4.747262e-04 4.728965e-04 4.636810e-04
          3.880673e-04 3.243044e-04 3.195896e-04 3.159677e-04 3.013114e-04 2.834586e-04
          2.869075e-04 3.019705e-04 3.123759e-04 2.191690e-04 -2.477416e-04 -5.046865e-04
          -5.372639e-04 -5.397612e-04 -5.336846e-04 -5.269986e-04 -5.190851e-04 -4.362714e-04
          -6.159890e-04 -6.221087e-04 -6.249854e-04 -6.189626e-04 -5.996623e-04 -5.423444e-04
          -3.408730e-04 4.530868e-06 -7.910802e-05 -2.332171e-04 -2.683779e-04 -2.025704e-04
          1.554583e-04 3.655896e-04 3.965073e-04 4.036715e-04 4.764953e-04 5.676158e-04
          5.762970e-04 5.688558e-04 5.358970e-04 4.068833e-04 4.277797e-04 4.312759e-04
          4.394813e-04 6.027219e-04 6.228833e-04 6.197125e-04 6.120648e-04 5.939414e-04
          5.104564e-04 4.356698e-04 4.292863e-04 4.244548e-04 4.034864e-04 3.721755e-04