<?xml version="1.0"?>
<VTKFile type="RectilinearGrid" version="0.1" byte_order="LittleEndian">
  <RectilinearGrid WholeExtent="0 47 0 47 0 47">
    <Piece Extent="0 47 0 47 0 47">
      <PointData Scalars="concentration">
        <DataArray type="Float32" Name="concentration" NumberOfComponents="1" format="ascii">
          1.149587e-04 1.542522e-04 1.678106e-04 1.495871e-04 1.310919e-04 1.002193e-04
          1.035665e-04 -2.162626e-05 -1.150390e-05 2.571929e-06 2.435653e-05 2.572150e-05
          7.000710e-05 1.208096e-04 7.650701e-05 1.605063e-05 9.359201e-06 -7.913128e-05
          -9.295806e-05 -8.591494e-05 -7.640846e-05 1.143753e-04 1.033408e-04 9.906407e-05
          8.789630e-05 -1.144826e-04 -1.243290e-04 -1.131493e-04 -9.111100e-05 -5.835476e-05
          -6.302516e-06 4.331490e-05 4.152443e-05 5.045069e-05 7.112561e-05 9.250256e-05
          1.051645e-04 1.484607e-04 1.502372e-04 -8.604247e-05 2.614208e-05 5.594682e-05
          3.852049e-05 4.930111e-05 5.395755e-05 4.286971e-05 2.891585e-05 -2.199226e-05
          3.167004e-05 6.940979e-05 7.534699e-05 5.806041e-05 4.516097e-05 2.840146e-05
          1.525954e-04 2.209005e-04 3.039638e-04 3.763631e-04 4.079305e-04 4.063185e-04
          4.363931e-04 4.787600e-04 4.204789e-04 3.333478e-04 2.138772e-04 1.858183e-05
          -3.660703e-06 7.028791e-06 7.725431e-05 4.656002e-04 4.663112e-04 4.620999e-04
          4.403468e-04 2.190742e-05 -2.462283e-05 -1.510859e-05 9.831423e-06 5.929262e-05
          2.325033e-04 3.811193e-04 3.829953e-04 3.929506e-04 4.085977e-04 4.102880e-04
          4.032857e-04 4.473799e-04 4.304936e-04 1.515145e-04 2.851715e-04 3.996734e-04
          4.165734e-04 4.359259e-04 4.422585e-04 4.312726e-04 4.162868e-04 3.483121e-04
          -8.435527e-05 1.406543e-04 2.090261e-04 9.742302e-05 -3.341747e-06 -1.492138e-04
          2.389427e-04 2.756229e-04 4.186911e-04 4.650062e-04 5.792839e-04 5.501041e-04
          5.734994e-04 6.988547e-04 4.019019e-04 4.206816e-05 3.661369e-04 2.486932e-04
          2.090026e-04 2.457595e-04 1.736215e-04 6.770369e-04 5.723314e-04 5.477521e-04
          5.157021e-04 8.194564e-06 4.356309e-05 1.042275e-04 2.120982e-04 3.346947e-04
          2.624597e-04 2.198462e-04 1.819776e-04 2.341810e-04 3.516812e-04 4.636537e-04
          5.349608e-04 8.267432e-04 9.466106e-04 -1.771171e-04 5.760770e-04 7.438016e-04
          6.527155e-04 7.141992e-04 7.368259e-04 6.721269e-04 5.918978e-04 3.198976e-04
          -5.290085e-05 -2.214925e-04 -2.873265e-04 -2.041869e-04 -1.208032e-04 9.936731e-06
          -3.802525e-05 3.179739e-04 3.791967e-04 4.870502e-04 4.278409e-04 4.333724e-04
          3.327186e-04 1.905073e-04 3.742777e-04 5.817948e-04 1.067263e-04 -3.237367e-05
          -2.093901e-05 -3.919880e-05 1.421445e-04 1.872950e-04 2.853148e-04 3.030311e-04
          3.041224e-04 2.203824e-04 1.173427e-04 6.923285e-05 -3.501724e-06 -5.815996e-05
          2.503258e-04 4.905746e-04 5.261472e-04 4.905556e-04 3.961747e-04 2.761456e-04
          1.832132e-04 -3.000571e-05 -1.566250e-04 5.906154e-04 1.433537e-04 2.265726e-04
          3.676264e-04 3.406546e-04 3.268232e-04 3.734658e-04 4.289268e-04 5.825772e-04
          -9.967158e-05 5.355364e-05 1.048996e-04 2.542483e-05 -5.012394e-05 -1.626817e-04
          6.244427e-05 8.104130e-05 1.508845e-04 1.445620e-04 2.153191e-04 1.729287e-04
          5.286520e-05 4.727559e-05 -1.593120e-04 -3.807669e-04 5.414012e-05 1.921588e-04
          1.852127e-04 2.068859e-04 6.291238e-05 3.579202e-05 -6.398796e-05 -8.135175e-05
          -8.354039e-05 -2.695204e-05 5.966060e-05 1.012003e-04 1.662760e-04 2.139911e-04
          -6.054492e-05 -2.805396e-04 -3.176119e-04 -2.822067e-04 -1.945242e-04 -9.729494e-05
          -2.906150e-05 1.786940e-04 3.108158e-04 -3.197517e-04 2.927843e-04 3.656232e-04
          2.762078e-04 3.093999e-04 3.206849e-04 2.749042e-04 2.197839e-04 4.310206e-05
          -5.494962e-05 9.916306e-05 1.569672e-04 7.635535e-05 -4.249920e-06 -1.286469e-04
          2.374161e-06 -1.188518e-04 -1.097468e-04 -1.687965e-04 -1.072505e-04 -1.503620e-04
          -2.783536e-04 -2.906121e-04 -4.868416e-04 -6.838307e-04 -1.257245e-04 1.323443e-04
          1.353978e-04 1.536278e-04 -5.300113e-05 -2.957936e-04 -4.089871e-04 -4.264449e-04
          -4.170922e-04 -1.247271e-04 6.759039e-07 4.339788e-05 1.046060e-04 1.331119e-04
          -2.732032e-04 -6.022083e-04 -6.441033e-04 -6.096046e-04 -5.172386e-04 -4.021730e-04
          -3.159598e-04 -1.072105e-04 4.797339e-05 -5.262741e-04 8.026761e-05 7.895262e-05
          -4.105493e-05 -1.584280e-05 -6.489389e-06 -5.248670e-05 -1.067038e-04 -2.675357e-04
          4.253135e-05 -1.803903e-04 -2.524689e-04 -1.435259e-04 -4.344584e-05 1.041347e-04
          -1.945487e-04 -7.826502e-05 -1.522868e-04 -1.422767e-04 -2.448477e-04 -2.328449e-04
          -3.497424e-04 -5.322214e-04 -2.577768e-04 7.877066e-05 -2.771045e-04 -1.930045e-04
          -1.556357e-04 -1.885498e-04 -9.108404e-05 -5.196821e-04 -4.173395e-04 -3.936849e-04
          -3.659982e-04 5.765468e-05 8.766002e-06 -5.244501e-05 -1.581006e-04 -2.741396e-04
          -1.611497e-04 -8.675410e-05 -4.957848e-05 -9.958653e-05 -2.154679e-04 -3.341655e-04
          -4.154276e-04 -6.993788e-04 -8.185677e-04 2.973114e-04 -3.482790e-04 -4.282761e-04
          -3.146938e-04 -3.698438e-04 -3.924176e-04 -3.301016e-04 -2.532855e-04 -6.264727e-06
          -6.906757e-05 2.548321e-04 3.673690e-04 2.052966e-04 5.087809e-05 -1.810691e-04
          1.742705e-04 -6.625912e-05 -8.102757e-06 -7.615590e-05 6.336551e-05 2.465920e-05
          6.539898e-05 2.442669e-04 -1.548254e-04 -6.128714e-04 1.452528e-04 2.653567e-04
          2.326714e-04 2.766631e-04 2.458868e-05 2.309443e-04 5.111072e-05 1.600067e-05
          -2.262941e-06 -1.647607e-04 -2.195385e-05 6.749856e-05 2.122529e-04 3.414454e-04
          -7.686033e-05 -3.989360e-04 -4.650397e-04 -3.927502e-04 -2.151749e-04 -1.589789e-05
          1.273935e-04 5.486583e-04 7.758661e-04 -7.028583e-04 3.283698e-04 3.797895e-04
          1.774779e-04 2.469210e-04 2.750929e-04 1.826179e-04 7.063006e-05 -2.753911e-04
          -8.943675e-06 -3.654718e-05 -4.916558e-05 -3.451166e-05 -1.821175e-05 9.201938e-06
          2.762404e-05 1.088497e-04 1.334782e-04 1.670051e-04 1.603351e-04 1.690545e-04
          2.000741e-04 2.086042e-04 2.385470e-04 2.617719e-04 1.054154e-04 2.569633e-06
          -2.965786e-06 -4.348638e-06 6.109765e-05 2.067721e-04 2.332661e-04 2.363475e-04
          2.291122e-04 6.536316e-05 2.517044e-05 1.706632e-05 8.330264e-06 1.265636e-05
          1.465363e-04 2.562835e-04 2.659143e-04 2.602881e-04 2.419055e-04 2.135528e-04
          1.902052e-04 1.532526e-04 1.146625e-04 1.864611e-04 7.894451e-05 1.113673e-04
          1.460799e-04 1.455338e-04 1.447950e-04 1.529327e-04 1.619730e-04 1.833119e-04
          -4.924670e-05 -1.877349e-05 -1.378456e-05 -2.752589e-05 -3.635232e-05 -4.436879e-05
          7.724459e-05 1.703259e-04 2.251527e-04 2.623574e-04 2.834394e-04 2.889279e-04
          3.500678e-04 4.057316e-04 3.615201e-04 2.925520e-04 2.181053e-04 8.336345e-05
          6.734223e-05 7.504465e-05 1.219767e-04 4.003039e-04 4.014903e-04 3.984154e-04
          3.828531e-04 8.618656e-05 5.475533e-05 6.235004e-05 8.139598e-05 1.175645e-04
          2.341650e-04 3.341290e-04 3.341337e-04 3.417264e-04 3.526779e-04 3.520132e-04
          3.468781e-04 3.851514e-04 3.765769e-04 1.522730e-04 2.128645e-04 2.760365e-04
          2.860190e-04 3.012153e-04 3.066137e-04 2.985662e-04 2.874271e-04 2.428514e-04
          -7.089668e-05 -3.722317e-05 -3.177162e-05 -4.686103e-05 -5.635465e-05 -6.429610e-05
          7.312927e-05 1.831290e-04 2.402368e-04 2.757743e-04 2.978659e-04 3.049154e-04
          3.773941e-04 4.414316e-04 3.933478e-04 3.183017e-04 2.454671e-04 1.066021e-04
          8.982434e-05 9.795886e-05 1.456183e-04 4.366540e-04 4.374869e-04 4.341654e-04
          4.179177e-04 1.085851e-04 7.655152e-05 8.495663e-05 1.054874e-04 1.437313e-04
          2.624072e-04 3.641595e-04 3.636409e-04 3.719017e-04 3.837510e-04 3.830637e-04
          3.779031e-04 4.207609e-04 4.134878e-04 1.695736e-04 2.280900e-04 2.903814e-04
          2.999945e-04 3.163876e-04 3.223082e-04 3.136569e-04 3.015941e-04 2.549260e-04
          4.066971e-06 4.113021e-06 3.248914e-06 4.897578e-06 7.574873e-06 1.326661e-05
          1.709587e-05 1.031699e-06 -4.479857e-06 -6.387076e-06 -6.815961e-06 6.094776e-06
          8.164350e-05 1.307230e-04 1.363211e-04 1.315932e-04 6.638218e-05 -7.017335e-07
          -7.235353e-06 -6.696434e-06 2.026691e-05 1.324028e-04 1.430824e-04 1.434794e-04
          1.376135e-04 1.691338e-05 -1.543266e-06 -1.439438e-06 1.154972e-06 1.219826e-05
          8.000537e-05 1.380329e-04 1.417295e-04 1.413981e-04 1.382002e-04 1.317094e-04
          1.265419e-04 1.233741e-04 1.065743e-04 5.695205e-05 -8.792035e-06 -1.694431e-05
          -1.236065e-05 -1.022429e-05 -8.715141e-06 -7.474308e-06 -6.728522e-06 -3.233299e-06
          1.063127e-04 9.255475e-05 9.192147e-05 1.009209e-04 1.068388e-04 1.120323e-04
          -2.796605e-06 -1.814119e-04 -2.433488e-04 -2.791289e-04 -2.919393e-04 -2.728970e-04
          -1.751881e-04 -1.183627e-04 -8.231012e-05 -4.729326e-05 -9.433219e-05 -1.193323e-04
          -1.210627e-04 -1.248940e-04 -1.189716e-04 -1.124081e-04 -9.872083e-05 -9.671257e-05
          -9.656668e-05 -1.051838e-04 -1.114034e-04 -1.140608e-04 -1.190117e-04 -1.211599e-04
          -9.234351e-05 -6.569335e-05 -5.967445e-05 -6.412712e-05 -7.215969e-05 -7.419346e-05
          -7.284341e-05 -9.868892e-05 -1.201294e-04 -8.693012e-05 -2.221958e-04 -2.892581e-04
          -2.987051e-04 -3.055489e-04 -3.061642e-04 -3.005918e-04 -2.939203e-04 -2.641509e-04
          1.229162e-04 1.789356e-04 2.021147e-04 1.772850e-04 1.512729e-04 1.081408e-04
          6.019852e-05 -2.027316e-04 -2.551127e-04 -3.022600e-04 -2.843659e-04 -2.664984e-04
          -1.174436e-04 6.191359e-06 -3.969980e-05 -1.057694e-04 -3.940588e-05 -8.993355e-05
          -1.035858e-04 -9.757323e-05 -1.257315e-04 9.083677e-06 -8.930525e-06 -1.427753e-05
          -2.247377e-05 -1.572377e-04 -1.465472e-04 -1.297871e-04 -1.015356e-04 -6.745502e-05
          -7.710046e-05 -7.548858e-05 -8.062131e-05 -6.968991e-05 -4.112008e-05 -3.572043e-06
          2.565752e-05 8.692085e-05 1.013259e-04 -2.172037e-04 -1.633794e-04 -2.190656e-04
          -2.688805e-04 -2.596189e-04 -2.531743e-04 -2.669507e-04 -2.839847e-04 -3.287828e-04
          1.295663e-04 6.377204e-05 4.172936e-05 7.925050e-05 1.153225e-04 1.686039e-04
          3.079779e-05 -9.430919e-05 -1.481017e-04 -1.502913e-04 -1.814029e-04 -1.384391e-04
          5.874928e-05 1.569797e-04 2.608265e-04 3.526157e-04 3.447694e-05 -1.615961e-04
          -1.720805e-04 -1.807836e-04 -6.821107e-05 1.638120e-04 2.270452e-04 2.351986e-04
          2.245696e-04 -3.839910e-05 -1.112019e-04 -1.284583e-04 -1.508495e-04 -1.488646e-04
          1.042774e-04 3.156800e-04 3.400915e-04 3.240503e-04 2.815473e-04 2.318012e-04
          1.960850e-04 9.665840e-05 3.543582e-06 1.775396e-04 -2.056437e-04 -2.574624e-04
          -2.153555e-04 -2.271845e-04 -2.292425e-04 -2.074918e-04 -1.822261e-04 -1.007495e-04
          8.283341e-05 1.863611e-04 2.211170e-04 1.745723e-04 1.319449e-04 6.834952e-05
          1.421816e-04 -7.603057e-05 -8.461955e-05 -1.088750e-04 -6.471181e-05 -3.862530e-05
          2.005165e-04 4.060182e-04 2.999245e-04 1.445969e-04 1.741227e-04 -7.483708e-06
          -3.926405e-05 -2.405104e-05 -2.000189e-05 4.046744e-04 3.800007e-04 3.699267e-04
          3.452797e-04 -9.484121e-05 -1.078508e-04 -7.855552e-05 -2.361080e-05 5.374703e-05
          1.398145e-04 2.259742e-04 2.180313e-04 2.399743e-04 2.882709e-04 3.363939e-04
          3.696535e-04 4.893349e-04 5.047928e-04 -1.215384e-04 1.996972e-05 1.270499e-05
          -4.173076e-05 -1.472339e-05 -1.108035e-06 -2.738868e-05 -6.067754e-05 -1.635310e-04
          9.917099e-05 4.242250e-05 2.243436e-05 5.409096e-05 8.449123e-05 1.296784e-04
          2.914675e-05 -3.871691e-05 -6.871750e-05 -5.824965e-05 -8.282989e-05 -5.329924e-05
          7.364547e-05 1.307213e-04 2.145162e-04 2.910292e-04 2.938742e-05 -1.253748e-04
          -1.327743e-04 -1.397444e-04 -4.536451e-05 1.343038e-04 1.852939e-04 1.920809e-04
          1.839443e-04 -2.159180e-05 -8.174103e-05 -9.685023e-05 -1.168743e-04 -1.175177e-04
          8.839949e-05 2.594477e-04 2.792401e-04 2.658807e-04 2.301675e-04 1.874678e-04
          1.557501e-04 7.202117e-05 -3.114744e-06 1.636979e-04 -1.259793e-04 -1.499943e-04
          -1.099181e-04 -1.195464e-04 -1.219179e-04 -1.037476e-04 -8.274584e-05 -1.803843e-05
          1.880246e-05 -3.427801e-05 -5.014573e-05 -2.304090e-05 1.332064e-06 3.763799e-05
          -6.127178e-05 -8.886556e-05 -1.334594e-04 -1.536985e-04 -1.825186e-04 -1.694835e-04
          -1.398863e-04 -1.472146e-04 -7.306362e-05 1.312138e-05 -7.450623e-05 -5.860584e-05
          -5.070182e-05 -5.956869e-05 -3.943310e-05 -1.400077e-04 -1.121747e-04 -1.061919e-04
          -9.951589e-05 1.394272e-06 -9.690829e-06 -2.384205e-05 -4.889533e-05 -7.582905e-05
          -4.795084e-05 -2.808654e-05 -1.832823e-05 -3.092345e-05 -5.976859e-05 -8.705075e-05
          -1.041331e-04 -1.740105e-04 -2.062828e-04 4.531641e-05 -1.665851e-04 -2.216278e-04
          -2.020976e-04 -2.166137e-04 -2.216507e-04 -2.056263e-04 -1.862163e-04 -1.173401e-04
          -5.898211e-05 1.941027e-04 2.861389e-04 1.594964e-04 3.639047e-05 -1.498239e-04
          6.765369e-05 -2.051605e-04 -2.117394e-04 -3.152583e-04 -2.158948e-04 -2.425045e-04
          -1.944891e-04 -4.714322e-05 -3.482783e-04 -6.859460e-04 4.868873e-06 1.972621e-04
          1.800153e-04 2.111740e-04 -3.566422e-05 -4.997922e-05 -1.992664e-04 -2.264788e-04
          -2.311805e-04 -1.650462e-04 -2.266547e-05 4.795938e-05 1.571882e-04 2.419132e-04
          -1.915073e-04 -5.316595e-04 -5.873163e-04 -5.319463e-04 -3.912526e-04 -2.240022e-04
          -9.917789e-05 2.307541e-04 4.268755e-04 -6.836173e-04 8.741493e-05 5.644103e-05
          -1.256010e-04 -7.766519e-05 -5.708656e-05 -1.285087e-04 -2.145617e-04 -4.665575e-04
          1.924425e-05 -1.165748e-04 -1.584591e-04 -9.109644e-05 -2.988014e-05 6.077677e-05
          -1.543665e-04 -1.423714e-04 -2.238204e-04 -2.516121e-04 -3.206978e-04 -3.029074e-04
          -3.162696e-04 -3.919246e-04 -2.144432e-04 4.403202e-07 -1.927612e-04 -1.187820e-04
          -9.460478e-05 -1.164477e-04 -7.255688e-05 -3.781503e-04 -3.148114e-04 -2.999807e-04
          -2.805387e-04 2.829102e-05 6.980589e-06 -2.979068e-05 -9.514147e-05 -1.695537e-04
          -1.279767e-04 -1.042992e-04 -8.204220e-05 -1.134361e-04 -1.849161e-04 -2.541679e-04
          -2.987609e-04 -4.730345e-04 -5.438354e-04 1.345689e-04 -3.232507e-04 -4.231067e-04
          -3.662081e-04 -4.024860e-04 -4.162164e-04 -3.769380e-04 -3.286964e-04 -1.638999e-04
          1.204492e-05 -1.582175e-05 -1.671196e-05 -3.106484e-06 5.449504e-06 1.490398e-05
          -1.368596e-04 -2.933217e-04 -3.989170e-04 -4.878560e-04 -5.175977e-04 -5.063796e-04
          -4.727074e-04 -4.687467e-04 -4.138628e-04 -3.368224e-04 -2.230906e-04 -5.624843e-05
          -3.869390e-05 -4.834697e-05 -1.185457e-04 -4.536394e-04 -4.539501e-04 -4.505054e-04
          -4.317863e-04 -6.852137e-05 -2.426448e-05 -3.055028e-05 -4.953079e-05 -8.955338e-05
          -2.469206e-04 -3.793438e-04 -3.807544e-04 -3.890675e-04 -4.003294e-04 -3.953905e-04
          -3.829164e-04 -4.179828e-04 -4.047193e-04 -2.007265e-04 -3.574551e-04 -4.966389e-04
          -5.250796e-04 -5.428101e-04 -5.476676e-04 -5.385124e-04 -5.261916e-04 -4.625140e-04
          8.785903e-06 4.804972e-05 7.274427e-05 5.305903e-05 2.910721e-05 -1.159708e-05
          -1.260703e-04 -3.928563e-04 -5.159220e-04 -6.447513e-04 -6.503771e-04 -6.417301e-04
          -5.701107e-04 -5.110705e-04 -5.314084e-04 -5.398771e-04 -2.391657e-04 -1.872200e-05
          -5.709706e-06 -7.858369e-06 -1.477352e-04 -4.947084e-04 -5.337502e-04 -5.373288e-04
          -5.193888e-04 -1.291042e-04 -4.504959e-05 -3.233756e-05 -2.231145e-05 -4.027051e-05
          -3.174349e-04 -5.435090e-04 -5.593444e-04 -5.533815e-04 -5.274536e-04 -4.766668e-04
          -4.287582e-04 -3.776292e-04 -3.133616e-04 -4.083102e-04 -3.859868e-04 -5.528763e-04
          -6.347388e-04 -6.409524e-04 -6.401459e-04 -6.495985e-04 -6.594612e-04 -6.577150e-04
          4.461259e-05 -2.408922e-04 -3.313611e-04 -1.887473e-04 -5.631902e-05 1.403430e-04
          -2.815836e-04 -2.299287e-04 -3.819882e-04 -4.194443e-04 -5.606262e-04 -5.150654e-04
          -4.933114e-04 -6.186552e-04 -2.459257e-04 1.931331e-04 -3.059701e-04 -2.450534e-04
          -2.025075e-04 -2.470093e-04 -1.120802e-04 -5.917867e-04 -4.467708e-04 -4.152629e-04
          -3.830888e-04 8.917361e-05 1.681721e-05 -6.071025e-05 -1.943257e-04 -3.352987e-04
          -1.491331e-04 -1.639690e-05 3.508391e-05 -3.080933e-05 -1.842608e-04 -3.402636e-04
          -4.432154e-04 -8.126802e-04 -9.823380e-04 3.864155e-04 -6.106759e-04 -7.948839e-04
          -6.610424e-04 -7.332154e-04 -7.600188e-04 -6.770995e-04 -5.754828e-04 -2.346782e-04
          -1.236405e-04 1.099282e-04 1.914662e-04 7.504278e-05 -3.438911e-05 -1.964537e-04
          7.243874e-05 -7.760313e-05 -5.564541e-05 -1.329862e-04 -3.813855e-05 -5.742035e-05
          1.863150e-05 1.750737e-04 -1.075129e-04 -4.339333e-04 1.410144e-04 2.567542e-04
          2.357577e-04 2.658928e-04 7.061997e-05 1.718663e-04 4.266779e-05 1.785796e-05
          7.427397e-06 -5.486519e-05 5.640457e-05 1.210307e-04 2.240053e-04 3.122954e-04
          -1.982155e-05 -2.780147e-04 -3.272222e-04 -2.758427e-04 -1.495053e-04 -7.019842e-06
          9.811566e-05 4.039900e-04 5.736345e-04 -4.901948e-04 1.943070e-04 1.916226e-04
          3.932528e-05 8.810616e-05 1.087181e-04 4.321004e-05 -3.619720e-05 -2.725156e-04
          -6.601447e-05 -7.830137e-05 -8.759667e-05 -8.152259e-05 -7.214560e-05 -5.403518e-05
          2.315332e-05 1.772628e-04 2.274770e-04 2.701318e-04 2.720714e-04 2.706666e-04
          2.551875e-04 2.402903e-04 2.436039e-04 2.405076e-04 1.414323e-04 6.875431e-05
          6.465433e-05 6.560428e-05 1.146544e-04 2.362533e-04 2.498961e-04 2.512064e-04
          2.449189e-04 1.098680e-04 8.077342e-05 7.654370e-05 7.330733e-05 7.957868e-05
          1.726642e-04 2.477335e-04 2.521242e-04 2.503367e-04 2.408131e-04 2.201239e-04
          2.015117e-04 1.882627e-04 1.691314e-04 1.937858e-04 1.757054e-04 2.332409e-04
          2.642572e-04 2.678552e-04 2.679074e-04 2.712080e-04 2.742935e-04 2.744858e-04
          4.239961e-05 -9.367994e-08 -2.147612e-05 -7.208477e-07 2.100667e-05 5.401396e-05
          8.713656e-05 2.420297e-04 3.205973e-04 4.143401e-04 4.122095e-04 4.017576e-04
          3.137338e-04 2.416558e-04 2.741413e-04 3.065703e-04 8.814430e-05 -4.502564e-05
          -5.018601e-05 -5.109432e-05 4.530406e-05 2.292745e-04 2.596573e-04 2.636732e-04
          2.544989e-04 4.112321e-05 -1.600519e-05 -2.861564e-05 -4.329659e-05 -4.086746e-05
          1.433069e-04 2.925489e-04 3.056624e-04 2.981686e-04 2.742623e-04 2.354205e-04
          1.994316e-04 1.436651e-04 9.370941e-05 2.505337e-04 2.229644e-04 3.388354e-04
          4.003759e-04 3.997848e-04 3.967374e-04 4.073045e-04 4.188180e-04 4.311622e-04
          4.980889e-05 2.073109e-04 2.565979e-04 1.770205e-04 1.013567e-04 -1.486737e-05
          2.020595e-04 1.547503e-04 2.606976e-04 3.103900e-04 3.942125e-04 3.552473e-04
          2.655577e-04 2.871933e-04 7.455790e-05 -1.694361e-04 1.036465e-04 6.775750e-05
          4.448736e-05 7.016066e-05 -1.350095e-06 2.653994e-04 1.804347e-04 1.626175e-04
          1.445494e-04 -1.220365e-04 -8.334383e-05 -4.038328e-05 3.347894e-05 1.118376e-04
          1.210418e-05 -5.845249e-05 -8.676326e-05 -4.967164e-05 3.813056e-05 1.281635e-04
          1.850465e-04 3.879134e-04 4.824354e-04 -2.545149e-04 3.813083e-04 5.259929e-04
          4.567433e-04 4.969338e-04 5.104555e-04 4.635967e-04 4.057591e-04 2.032468e-04
          1.198686e-04 1.277464e-05 -2.711187e-05 2.500140e-05 7.305113e-05 1.411747e-04
          3.315969e-05 1.358916e-04 1.728776e-04 2.588239e-04 2.252925e-04 2.152605e-04
          7.513433e-05 -6.104794e-05 5.498255e-05 1.951135e-04 -9.263908e-05 -1.688635e-04
          -1.605198e-04 -1.719706e-04 -6.612322e-05 -6.992205e-05 -1.490218e-05 -4.160159e-06
          -1.934661e-06 -2.458164e-05 -8.447484e-05 -1.143063e-04 -1.606369e-04 -1.971467e-04
          -1.736582e-05 1.233895e-04 1.464946e-04 1.242554e-04 6.928400e-05 4.265072e-06
          -4.839737e-05 -1.885197e-04 -2.677725e-04 2.339741e-04 3.709327e-05 1.136420e-04
          1.974998e-04 1.777603e-04 1.672057e-04 1.955891e-04 2.293857e-04 3.149869e-04
          5.929420e-05 2.119729e-04 2.643890e-04 1.869937e-04 1.111196e-04 -7.391627e-06
          1.390825e-04 -1.697939e-06 5.076935e-05 5.274668e-05 1.254456e-04 9.136082e-05
          2.185541e-05 5.200047e-05 -1.438976e-04 -3.615956e-04 -9.663348e-06 4.152161e-05
          2.608904e-05 4.811892e-05 -6.636325e-05 3.746147e-05 -5.270398e-05 -6.981741e-05
          -7.899616e-05 -1.672304e-04 -1.019358e-04 -5.963143e-05 8.921616e-06 7.083493e-05
          -1.200141e-04 -2.663487e-04 -2.971285e-04 -2.622082e-04 -1.749352e-04 -7.639865e-05
          -8.666799e-06 1.882405e-04 2.956087e-04 -3.815354e-04 2.032694e-04 2.776150e-04
          1.875572e-04 2.206078e-04 2.326070e-04 1.875768e-04 1.328493e-04 -4.723254e-05
          5.536333e-05 -1.883541e-06 -2.323090e-05 4.502806e-06 3.024200e-05 6.707113e-05
          1.417287e-05 7.834012e-05 9.934686e-05 1.451472e-04 1.272035e-04 1.215233e-04
          4.469164e-05 -2.946007e-05 3.191389e-05 1.063316e-04 -4.431359e-05 -8.180692e-05
          -7.703404e-05 -8.310969e-05 -2.752104e-05 -3.406194e-05 -5.005370e-06 7.341382e-07
          2.143724e-06 -4.882619e-06 -3.614984e-05 -5.213725e-05 -7.701427e-05 -9.702423e-05
          -4.005122e-06 6.849499e-05 8.055281e-05 6.868836e-05 3.930774e-05 4.341294e-06
          -2.392505e-05 -9.817875e-05 -1.395194e-04 1.301081e-04 2.591851e-05 6.714503e-05
          1.122101e-04 1.017864e-04 9.610664e-05 1.112460e-04 1.292577e-04 1.750921e-04
          3.270628e-05 1.010348e-04 1.239492e-04 8.878521e-05 5.397560e-05 -8.566842e-07
          7.096225e-05 2.482464e-05 6.017292e-05 7.202926e-05 1.067121e-04 8.510583e-05
          1.793065e-05 8.748032e-06 -8.320781e-05 -1.821530e-04 -1.704980e-05 1.418870e-05
          8.283475e-06 1.861968e-05 -3.414009e-05 -1.844102e-07 -4.335430e-05 -5.124605e-05
          -5.474541e-05 -8.185810e-05 -5.099056e-05 -3.219134e-05 -1.842927e-06 2.446700e-05
          -6.822502e-05 -1.403250e-04 -1.547680e-04 -1.387778e-04 -9.862738e-05 -5.357739e-05
          -2.357084e-05 6.552545e-05 1.167517e-04 -1.739781e-04 1.238936e-04 1.747611e-04
          1.369030e-04 1.519693e-04 1.568771e-04 1.361895e-04 1.109938e-04 2.508484e-05
          5.232952e-05 1.133418e-04 1.374935e-04 1.054438e-04 7.120203e-05 1.476159e-05
          2.258261e-05 -9.647359e-05 -1.002637e-04 -1.211159e-04 -9.590314e-05 -1.178811e-04
          -1.962410e-04 -2.175987e-04 -2.939382e-04 -3.659636e-04 -1.334160e-04 -2.068968e-05
          -1.862114e-05 -1.165287e-05 -1.009754e-04 -2.220404e-04 -2.702554e-04 -2.773913e-04
          -2.723893e-04 -1.316244e-04 -7.747483e-05 -6.020303e-05 -3.617726e-05 -2.667136e-05
          -2.007707e-04 -3.412337e-04 -3.576031e-04 -3.439456e-04 -3.050745e-04 -2.534395e-04
          -2.152592e-04 -1.351662e-04 -7.263466e-05 -2.864564e-04 -1.455971e-05 -1.250156e-05
          -6.510304e-05 -5.698751e-05 -5.400417e-05 -7.265175e-05 -9.450111e-05 -1.615899e-04
          4.404456e-06 -3.267340e-05 -4.664796e-05 -2.866972e-05 -1.152136e-05 1.423927e-05
          -9.412322e-06 5.308391e-05 6.430191e-05 8.733779e-05 7.425532e-05 7.160733e-05
          2.699706e-05 -1.864144e-05 2.122534e-05 7.010796e-05 -1.419745e-05 -2.427373e-05
          -1.983232e-05 -2.413872e-05 6.481660e-06 -2.007976e-05 -1.884036e-06 1.848347e-06
          4.045593e-06 2.449455e-05 7.991223e-06 -2.561132e-06 -1.931324e-05 -3.483363e-05
          1.158380e-05 4.634528e-05 5.331421e-05 4.551769e-05 2.600922e-05 2.807308e-06
          -1.517842e-05 -6.204040e-05 -8.530661e-05 9.488814e-05 1.695735e-05 3.524841e-05
          6.328426e-05 5.616504e-05 5.266279e-05 6.257606e-05 7.461975e-05 1.074979e-04
          -7.726940e-05 -7.236146e-05 -7.808718e-05 -7.973063e-05 -7.620996e-05 -6.485706e-05
          6.257911e-05 2.412047e-04 3.137181e-04 3.713034e-04 3.839291e-04 3.848662e-04
          3.991630e-04 4.123773e-04 3.926419e-04 3.551657e-04 2.298379e-04 9.718835e-05
          8.543657e-05 9.015190e-05 1.572524e-04 4.056447e-04 4.181013e-04 4.175590e-04
          4.041868e-04 1.342734e-04 9.275996e-05 9.282509e-05 9.972268e-05 1.234970e-04
          2.650758e-04 3.821130e-04 3.861192e-04 3.884774e-04 3.857464e-04 3.675210e-04
          3.487447e-04 3.561736e-04 3.349499e-04 2.434925e-04 2.621321e-04 3.464164e-04
          3.787460e-04 3.894010e-04 3.923930e-04 3.909642e-04 3.880868e-04 3.648798e-04
          -9.683688e-05 4.341727e-05 8.449561e-05 1.525469e-05 -4.564763e-05 -1.314707e-04
          1.422249e-04 2.148588e-04 3.129304e-04 3.446559e-04 4.160402e-04 4.008818e-04
          4.329024e-04 5.215100e-04 3.352531e-04 1.060261e-04 2.897962e-04 1.996749e-04
          1.736238e-04 1.967641e-04 1.618139e-04 5.087227e-04 4.467473e-04 4.315446e-04
          4.099038e-04 5.844366e-05 7.442319e-05 1.118969e-04 1.795318e-04 2.584985e-04
          2.331842e-04 2.223625e-04 1.992456e-04 2.318181e-04 3.031792e-04 3.679015e-04
          4.085518e-04 5.912230e-04 6.630535e-04 -4.934519e-05 4.010537e-04 5.099566e-04
          4.586582e-04 4.984461e-04 5.132987e-04 4.732346e-04 4.235735e-04 2.548382e-04
          3.677107e-05 -7.651773e-05 -1.179585e-04 -6.100368e-05 -5.704208e-06 7.795874e-05
          -2.065783e-05 9.537178e-05 9.987357e-05 1.494850e-04 1.056045e-04 1.185200e-04
          1.034236e-04 4.190327e-05 1.770865e-04 3.272048e-04 3.542978e-06 -9.718133e-05
          -9.082624e-05 -1.045411e-04 1.211242e-05 4.260924e-05 1.111822e-04 1.233296e-04
          1.241733e-04 6.810264e-05 3.198124e-07 -3.135478e-05 -7.967258e-05 -1.152967e-04
          9.379329e-05 2.588424e-04 2.846107e-04 2.598603e-04 1.964974e-04 1.206801e-04
          6.375880e-05 -8.494714e-05 -1.762520e-04 3.129540e-04 -3.569301e-05 -1.819383e-05
          6.487046e-05 4.381699e-05 3.490198e-05 6.687402e-05 1.054379e-04 2.172104e-04
          5.717741e-06 2.662236e-04 3.565103e-04 2.262796e-04 1.013995e-04 -8.901434e-05
          1.764065e-04 -5.594334e-05 -3.219603e-06 -4.393587e-05 7.113587e-05 3.695336e-05
          5.380324e-05 1.890300e-04 -1.323236e-04 -5.011417e-04 8.470782e-05 1.567301e-04
          1.283868e-04 1.641733e-04 -2.866449e-05 1.748177e-04 3.109095e-05 2.693676e-06
          -1.401132e-05 -1.876110e-04 -7.918393e-05 -7.147995e-06 1.103302e-04 2.180889e-04
          -9.356994e-05 -3.313722e-04 -3.827719e-04 -3.244629e-04 -1.808358e-04 -1.957341e-05
          9.522988e-05 4.308514e-04 6.075854e-04 -5.874712e-04 2.661860e-04 3.257562e-04
          1.655299e-04 2.214334e-04 2.442423e-04 1.693719e-04 7.897271e-05 -2.059094e-04
          7.705198e-05 8.680859e-05 9.166870e-05 8.493281e-05 7.527679e-05 5.561845e-05
          2.722670e-05 -2.300784e-05 -1.199451e-05 2.124599e-06 9.953317e-06 -1.087023e-05
          -1.221565e-04 -1.874495e-04 -2.064792e-04 -2.135275e-04 -1.323727e-04 -6.991031e-05
          -6.516787e-05 -6.376623e-05 -9.643730e-05 -1.940236e-04 -2.122780e-04 -2.141101e-04
          -2.093356e-04 -1.054878e-04 -8.396356e-05 -8.118960e-05 -7.878045e-05 -8.460545e-05
          -1.580396e-04 -2.191213e-04 -2.238462e-04 -2.210481e-04 -2.101974e-04 -1.932155e-04
          -1.820219e-04 -1.687800e-04 -1.474740e-04 -1.364917e-04 6.176111e-06 3.515909e-05
          2.399236e-05 2.334974e-05 2.216811e-05 1.739207e-05 1.239351e-05 -9.714408e-06
          8.281822e-05 1.073386e-04 1.131682e-04 9.804255e-05 8.098181e-05 5.037410e-05
          9.158057e-05 1.262356e-04 1.980619e-04 2.629962e-04 2.873711e-04 2.483714e-04
          4.788189e-05 -6.544531e-05 -1.184015e-04 -1.615316e-04 -8.529106e-05 -5.427991e-05
          -5.343288e-05 -4.717491e-05 -6.574913e-05 -8.214881e-05 -1.098517e-04 -1.138763e-04
          -1.139549e-04 -9.942482e-05 -8.572005e-05 -7.950969e-05 -6.935277e-05 -6.323976e-05
          -1.113076e-04 -1.514365e-04 -1.584792e-04 -1.509188e-04 -1.309649e-04 -1.098973e-04
          -1.008624e-04 -6.662044e-05 -3.821344e-05 -9.104582e-05 1.989948e-04 3.113941e-04
          3.110623e-04 3.179836e-04 3.176290e-04 3.072560e-04 2.947180e-04 2.347348e-04
          1.206062e-05 2.139292e-05 1.269602e-05 7.951236e-06 7.960361e-06 1.117902e-05
          1.752231e-04 4.021715e-04 5.456298e-04 6.787321e-04 7.081802e-04 6.880843e-04
          5.909851e-04 5.396504e-04 4.969251e-04 4.350088e-04 2.406046e-04 3.095442e-05
          1.259808e-05 2.195479e-05 1.284875e-04 5.180598e-04 5.287487e-04 5.269292e-04
          5.055914e-04 7.645994e-05 1.126019e-05 1.209770e-05 2.398106e-05 6.255476e-05
          2.848915e-04 4.693949e-04 4.756717e-04 4.808709e-04 4.826970e-04 4.627765e-04
          4.353956e-04 4.469199e-04 4.158909e-04 2.938007e-04 4.618288e-04 6.576340e-04
          7.123893e-04 7.295145e-04 7.323992e-04 7.277983e-04 7.200111e-04 6.596310e-04
          -1.001364e-04 -1.164604e-04 -1.326931e-04 -1.251793e-04 -1.120532e-04 -8.542877e-05
          7.463273e-05 3.768150e-04 4.934263e-04 5.942771e-04 6.050898e-04 5.927391e-04
          5.148662e-04 4.599233e-04 4.515133e-04 4.323385e-04 2.547738e-04 1.144060e-04
          1.057232e-04 1.095577e-04 2.022047e-04 4.474302e-04 4.670898e-04 4.683940e-04
          4.554479e-04 1.825251e-04 1.279851e-04 1.216449e-04 1.188039e-04 1.342528e-04
          3.089698e-04 4.499885e-04 4.569215e-04 4.557235e-04 4.427985e-04 4.084544e-04
          3.746105e-04 3.587260e-04 3.277778e-04 3.523985e-04 3.938709e-04 5.362513e-04