<?xml version="1.0"?>
<VTKFile type="RectilinearGrid" version="0.1" byte_order="LittleEndian">
  <RectilinearGrid WholeExtent="0 47 0 47 0 47">
    <Piece Extent="0 47 0 47 0 47">
      <PointData Scalars="concentration">
        <DataArray type="Float32" Name="concentration" NumberOfComponents="1" format="ascii">
          1.570588e-04 1.863103e-04 1.978675e-04 1.858578e-04 1.725813e-04 1.477738e-04
          9.877345e-05 -9.988272e-05 -1.187512e-04 -1.210143e-04 -1.070665e-04 -9.491376e-05
          3.009165e-06 8.323954e-05 6.109997e-05 2.156919e-05 -2.221326e-05 -1.296181e-04
          -1.445154e-04 -1.398628e-04 -1.218349e-04 8.039906e-05 7.874204e-05 7.605679e-05
          6.457615e-05 -1.510385e-04 -1.677180e-04 -1.582332e-04 -1.402644e-04 -1.090284e-04
          -3.229235e-05 3.881755e-05 4.101273e-05 4.694303e-05 6.130160e-05 7.796238e-05
          8.887375e-05 1.147912e-04 1.025971e-04 -1.053295e-04 -7.697980e-05 -7.983577e-05
          -9.834745e-05 -9.115165e-05 -8.705982e-05 -9.419300e-05 -1.035251e-04 -1.358374e-04
          7.124482e-05 9.974877e-05 1.105577e-04 9.922355e-05 8.862503e-05 7.173137e-05
          5.552113e-05 -8.653872e-05 -1.122115e-04 -1.316174e-04 -1.217459e-04 -1.018364e-04
          3.798848e-05 1.426450e-04 1.233462e-04 8.349874e-05 4.745697e-05 -4.961650e-05
          -6.339438e-05 -5.956091e-05 -4.432156e-05 1.447353e-04 1.457674e-04 1.435189e-04
          1.328824e-04 -6.547086e-05 -8.031716e-05 -7.132774e-05 -5.428480e-05 -2.524100e-05
          4.278686e-05 1.057387e-04 1.070274e-04 1.123993e-04 1.240016e-04 1.359460e-04
          1.451177e-04 1.728849e-04 1.629387e-04 -4.787465e-05 -7.336550e-05 -1.000459e-04
          -1.186817e-04 -1.113108e-04 -1.065585e-04 -1.126814e-04 -1.207889e-04 -1.429147e-04
          -4.590031e-05 1.739714e-04 2.502688e-04 1.431104e-04 4.298035e-05 -1.053547e-04
          1.237314e-04 -9.641839e-05 -8.586531e-05 -1.542285e-04 -6.406404e-05 -6.442272e-05
          1.126774e-04 3.297017e-04 7.371315e-05 -2.386648e-04 1.883631e-04 1.793798e-04
          1.481760e-04 1.774517e-04 3.918212e-05 3.268522e-04 2.217105e-04 1.988936e-04
          1.788456e-04 -8.829052e-05 -1.527002e-05 4.612957e-05 1.477698e-04 2.501199e-04
          5.562340e-05 -8.577999e-05 -1.250262e-04 -7.709702e-05 3.793370e-05 1.643307e-04
          2.567346e-04 5.364020e-04 6.657275e-04 -4.142279e-04 1.466490e-04 1.401394e-04
          3.072054e-06 5.175043e-05 7.347597e-05 1.312796e-05 -6.059180e-05 -2.818435e-04
          -1.041327e-05 -1.791641e-04 -2.378583e-04 -1.513574e-04 -6.629015e-05 6.554598e-05
          -1.077007e-04 9.404912e-06 -4.419477e-05 -3.290253e-05 -1.105407e-04 -6.712121e-05
          4.510382e-05 3.646078e-05 2.556882e-04 4.913546e-04 3.364788e-05 -9.376512e-05
          -8.331880e-05 -1.067002e-04 4.865699e-05 5.034379e-05 1.581368e-04 1.772925e-04
          1.811482e-04 1.514848e-04 5.963783e-05 1.323305e-05 -5.967392e-05 -1.164309e-04
          1.660928e-04 3.893409e-04 4.273849e-04 3.887921e-04 2.909919e-04 1.779722e-04
          9.851726e-05 -1.236023e-04 -2.595599e-04 4.480672e-04 -2.186411e-04 -2.865314e-04
          -1.805848e-04 -2.149577e-04 -2.273343e-04 -1.770834e-04 -1.166437e-04 7.800500e-05
          -4.566289e-05 1.100315e-04 1.637057e-04 8.782731e-05 1.755790e-05 -8.587512e-05
          8.466623e-05 -5.816365e-05 -4.904603e-05 -9.754002e-05 -3.380354e-05 -3.295816e-05
          9.890588e-05 2.565433e-04 7.516921e-05 -1.472210e-04 1.506269e-04 1.400264e-04
          1.175823e-04 1.383580e-04 4.292798e-05 2.548677e-04 1.814571e-04 1.653096e-04
          1.507320e-04 -4.712250e-05 3.147507e-06 4.637833e-05 1.185202e-04 1.916214e-04
          5.874205e-05 -3.747219e-05 -6.516663e-05 -3.120548e-05 4.972220e-05 1.378256e-04
          2.022099e-04 4.005750e-04 4.913193e-04 -2.767768e-04 1.132083e-04 1.085781e-04
          1.274594e-05 4.764421e-05 6.314933e-05 2.050803e-05 -3.147426e-05 -1.875676e-04
          1.215286e-05 1.706525e-04 2.258360e-04 1.484919e-04 7.547681e-05 -3.469892e-05
          1.124697e-04 -7.770339e-05 -6.755830e-05 -1.084085e-04 -4.160622e-05 -4.474681e-05
          6.778726e-05 2.156355e-04 3.083251e-05 -1.936895e-04 1.039855e-04 8.681146e-05
          6.327189e-05 8.473053e-05 -1.108882e-05 2.111903e-04 1.352041e-04 1.185774e-04
          1.033260e-04 -1.070374e-04 -5.687094e-05 -1.262294e-05 6.119098e-05 1.367293e-04
          6.770371e-06 -8.602395e-05 -1.134455e-04 -7.869917e-05 5.144428e-06 9.789399e-05
          1.648000e-04 3.645721e-04 4.548662e-04 -3.237045e-04 1.009658e-04 1.073556e-04
          9.078582e-06 4.413717e-05 5.944460e-05 1.564387e-05 -3.775163e-05 -2.016143e-04
          1.363124e-04 -8.311767e-05 -1.580380e-04 -4.646352e-05 5.922529e-05 2.158974e-04
          -7.497805e-05 -2.481885e-05 -8.601329e-05 -4.485841e-05 -1.399726e-04 -9.989745e-05
          -4.528023e-05 -1.117479e-04 1.694879e-04 4.813812e-04 -1.056528e-04 -2.646385e-04
          -2.505403e-04 -2.800610e-04 -8.318020e-05 -1.020898e-04 3.066664e-05 5.486745e-05
          6.080113e-05 3.958398e-05 -7.629341e-05 -1.361604e-04 -2.308829e-04 -3.055846e-04
          5.254063e-05 3.362882e-04 3.863741e-04 3.368706e-04 2.147675e-04 7.790807e-05
          -2.057378e-05 -3.134792e-04 -4.893682e-04 4.583862e-04 -3.048270e-04 -3.556686e-04
          -2.201070e-04 -2.664576e-04 -2.844098e-04 -2.206432e-04 -1.438027e-04 9.359328e-05
          4.742786e-05 3.707459e-04 4.840633e-04 3.247355e-04 1.720188e-04 -6.086147e-05
          2.282899e-04 -1.552763e-04 -1.238441e-04 -1.970734e-04 -5.861836e-05 -8.118423e-05
          5.424917e-05 2.957993e-04 -8.867384e-05 -5.426141e-04 1.260479e-04 1.537455e-04
          1.117867e-04 1.556121e-04 -6.488657e-05 2.830469e-04 1.163198e-04 8.186998e-05
          5.619165e-05 -2.606582e-04 -1.409932e-04 -5.063141e-05 9.754383e-05 2.414988e-04
          -8.710731e-05 -3.306472e-04 -3.900205e-04 -3.186419e-04 -1.435490e-04 5.357155e-05
          1.952446e-04 6.055546e-04 8.059748e-04 -7.311639e-04 2.235150e-04 2.562582e-04
          5.234966e-05 1.218894e-04 1.513839e-04 6.058425e-05 -4.990465e-05 -3.918231e-04
          9.940079e-05 6.994249e-05 6.114316e-05 7.810797e-05 9.359350e-05 1.146887e-04
          2.551638e-05 -8.016579e-05 -1.137222e-04 -1.175504e-04 -1.318875e-04 -1.113327e-04
          -1.515214e-05 3.447302e-05 8.418688e-05 1.286651e-04 -1.913541e-05 -1.133293e-04
          -1.190010e-04 -1.230402e-04 -7.277641e-05 3.738485e-05 6.607090e-05 6.986879e-05
          6.469776e-05 -6.010522e-05 -9.349869e-05 -1.006412e-04 -1.103271e-04 -1.083952e-04
          9.485618e-06 1.089031e-04 1.207612e-04 1.134147e-04 9.494573e-05 7.471007e-05
          6.055956e-05 1.368728e-05 -3.097386e-05 4.330982e-05 -1.324396e-04 -1.616113e-04
          -1.460683e-04 -1.520217e-04 -1.531683e-04 -1.432806e-04 -1.318180e-04 -9.486793e-05
          3.585915e-05 6.645273e-05 7.806096e-05 6.492980e-05 5.277940e-05 3.450906e-05
          3.369354e-05 -7.591077e-05 -9.857164e-05 -1.218264e-04 -1.118463e-04 -9.650832e-05
          1.739476e-05 1.055208e-04 8.078100e-05 3.923249e-05 4.329475e-05 -1.623439e-05
          -2.666763e-05 -2.292279e-05 -2.313944e-05 1.080862e-04 1.033934e-04 1.008096e-04
          9.322356e-05 -4.162496e-05 -4.586096e-05 -3.663763e-05 -2.010766e-05 3.660004e-06
          3.253777e-05 6.190967e-05 6.045895e-05 6.641082e-05 7.991173e-05 9.464203e-05
          1.063537e-04 1.396979e-04 1.406947e-04 -5.651445e-05 -5.753689e-05 -8.543987e-05
          -1.071255e-04 -1.000931e-04 -9.577627e-05 -1.027479e-04 -1.117260e-04 -1.350863e-04
          -2.581887e-05 1.192100e-05 2.546782e-05 8.338980e-06 -6.618199e-06 -2.670772e-05
          9.464823e-06 -4.895949e-05 -6.585893e-05 -9.515892e-05 -8.320076e-05 -6.960392e-05
          3.895843e-05 1.257309e-04 8.959996e-05 3.640119e-05 7.959246e-05 4.668745e-05
          3.800547e-05 4.243156e-05 2.905181e-05 1.296319e-04 1.190267e-04 1.156814e-04
          1.095949e-04 1.060757e-05 1.508760e-05 2.591458e-05 4.457882e-05 6.721033e-05
          6.425849e-05 6.642628e-05 6.164080e-05 6.923563e-05 8.616605e-05 1.038531e-04
          1.182670e-04 1.642179e-04 1.771054e-04 -4.126994e-05 -2.157591e-05 -5.191471e-05
          -7.740365e-05 -6.877482e-05 -6.382945e-05 -7.283691e-05 -8.421351e-05 -1.126434e-04
          3.639632e-07 5.297961e-06 7.120849e-06 5.646659e-06 4.816020e-06 4.821805e-06
          7.186948e-06 -1.573726e-05 -2.422309e-05 -3.183162e-05 -3.096487e-05 -2.209852e-05
          3.366743e-05 7.190710e-05 7.086489e-05 6.251478e-05 3.848257e-05 3.430859e-06
          -7.555375e-07 -1.807229e-07 9.784897e-06 7.372312e-05 7.749484e-05 7.734007e-05
          7.383212e-05 6.565545e-06 -1.193428e-06 4.072872e-07 4.081704e-06 1.210713e-05
          4.246074e-05 6.914328e-05 7.026740e-05 7.102569e-05 7.167606e-05 7.117220e-05
          7.123086e-05 7.539646e-05 6.899249e-05 1.613162e-05 -1.842586e-05 -3.069332e-05
          -3.305066e-05 -3.131860e-05 -2.984001e-05 -3.035423e-05 -3.133845e-05 -3.221201e-05
          5.760383e-05 4.489242e-05 4.029016e-05 4.699557e-05 5.258198e-05 5.966823e-05
          3.226238e-05 9.360948e-06 1.391869e-05 3.133720e-05 2.903024e-05 3.016395e-05
          2.900462e-05 2.407933e-05 3.951835e-05 5.448216e-05 -1.408659e-05 -5.912357e-05
          -6.165334e-05 -6.252543e-05 -3.598169e-05 2.152115e-05 3.182054e-05 3.314021e-05
          3.022529e-05 -3.625847e-05 -5.299163e-05 -5.625492e-05 -6.023369e-05 -5.848963e-05
          -1.200996e-06 4.645536e-05 5.135021e-05 4.876125e-05 4.190656e-05 3.327577e-05
          2.555366e-05 6.042062e-06 -1.243382e-05 2.665652e-05 -2.821861e-06 1.357070e-05
          2.575859e-05 2.401549e-05 2.331020e-05 2.678145e-05 3.067857e-05 3.796115e-05
          4.852083e-05 1.029083e-04 1.215949e-04 9.441235e-05 6.727237e-05 2.452040e-05
          6.939978e-05 -4.872550e-07 1.970708e-05 2.638368e-05 5.365396e-05 4.292756e-05
          2.798823e-05 4.591596e-05 -2.315329e-05 -1.024375e-04 -1.790810e-06 -9.336505e-06
          -1.733321e-05 -9.087816e-06 -3.950962e-05 3.961064e-05 1.013825e-05 4.057003e-06
          -1.537983e-06 -7.934430e-05 -6.313209e-05 -4.783863e-05 -2.237797e-05 4.069533e-06
          -3.787218e-05 -6.773425e-05 -7.721215e-05 -6.471341e-05 -3.392612e-05 2.985715e-07
          2.316521e-05 9.143609e-05 1.234250e-04 -1.325193e-04 7.267621e-05 1.056930e-04
          7.571974e-05 8.798944e-05 9.275010e-05 7.675395e-05 5.709614e-05 -9.396686e-06
          5.445311e-05 -1.445831e-05 -3.818843e-05 -3.979577e-06 2.729034e-05 7.276845e-05
          -1.413726e-05 1.953495e-05 1.473913e-05 4.129891e-05 1.427003e-05 1.704911e-05
          -2.156561e-05 -7.765143e-05 4.609943e-06 1.014136e-04 -6.318642e-05 -9.263163e-05
          -8.600771e-05 -9.483663e-05 -3.933778e-05 -7.782655e-05 -4.144228e-05 -3.417617e-05
          -3.075480e-05 -3.689376e-06 -3.518017e-05 -5.394434e-05 -8.452546e-05 -1.111531e-04
          -1.819944e-05 5.377558e-05 6.807926e-05 5.301813e-05 1.661066e-05 -2.368034e-05
          -5.372549e-05 -1.441571e-04 -1.929096e-04 1.264458e-04 -5.776971e-05 -5.135719e-05
          -6.862997e-06 -2.167993e-05 -2.796530e-05 -8.819152e-06 1.411241e-05 8.146370e-05
          1.250076e-06 1.016813e-04 1.367692e-04 8.626300e-05 3.699499e-05 -3.818966e-05
          6.337114e-05 -2.098510e-05 1.150422e-06 -1.366251e-05 3.098700e-05 1.394575e-05
          -1.938589e-06 3.570239e-05 -9.007464e-05 -2.312256e-04 1.365182e-05 6.083819e-05
          5.173746e-05 6.543309e-05 -1.664900e-05 2.976128e-05 -2.892078e-05 -3.993569e-05
          -4.477230e-05 -7.715270e-05 -3.022059e-05 -2.198799e-06 4.223115e-05 8.075483e-05
          -5.902207e-05 -1.674488e-04 -1.884128e-04 -1.658306e-04 -1.095224e-04 -4.526250e-05
          4.816698e-07 1.309405e-04 2.041169e-04 -2.429288e-04 1.063358e-04 1.320549e-04
          6.904172e-05 8.994196e-05 9.829842e-05 6.927576e-05 3.388513e-05 -7.709780e-05
          6.574288e-07 -5.414783e-05 -7.252909e-05 -4.525483e-05 -1.978656e-05 1.895858e-05
          -4.264881e-05 -1.834301e-07 -1.454579e-05 -8.964510e-06 -3.359940e-05 -2.777166e-05
          -3.908408e-05 -7.267085e-05 -5.116639e-06 7.427490e-05 -3.485907e-05 -3.597215e-05
          -2.867639e-05 -3.653735e-05 -2.464426e-06 -6.943304e-05 -4.115619e-05 -3.518366e-05
          -3.046251e-05 3.238630e-05 1.364432e-05 -1.295468e-06 -2.652052e-05 -5.146157e-05
          -6.341807e-07 3.694683e-05 4.704804e-05 3.476781e-05 5.102932e-06 -2.705226e-05
          -4.951118e-05 -1.197195e-04 -1.537090e-04 1.056656e-04 -6.778591e-05 -8.403105e-05
          -5.263888e-05 -6.528281e-05 -7.020157e-05 -5.450618e-05 -3.565666e-05 2.491177e-05
          -1.904359e-05 -5.947769e-05 -7.245403e-05 -5.166755e-05 -3.156477e-05 4.161720e-07
          -4.838264e-05 -2.946300e-05 -5.545370e-05 -6.705755e-05 -8.837231e-05 -7.554691e-05
          -3.539152e-05 -2.983876e-05 2.540102e-05 8.585693e-05 -1.739002e-06 -1.014203e-05
          -5.737292e-06 -1.224017e-05 1.399171e-05 -2.393230e-05 5.524021e-07 5.313354e-06
          8.279251e-06 4.399526e-05 2.866543e-05 1.771211e-05 -5.595733e-07 -1.784330e-05
          2.614096e-05 5.982214e-05 6.786170e-05 5.836903e-05 3.484674e-05 9.394286e-06
          -7.062582e-06 -5.960695e-05 -8.795132e-05 8.888533e-05 -8.955766e-05 -1.260298e-04
          -1.060708e-04 -1.157491e-04 -1.188255e-04 -1.063463e-04 -9.142251e-05 -3.892345e-05
          -6.605570e-05 2.022712e-04 2.962305e-04 1.629779e-04 3.635791e-05 -1.528234e-04
          1.287262e-04 -1.006559e-04 -7.306859e-05 -1.481670e-04 -3.630885e-05 -5.834225e-05
          3.274872e-05 2.168955e-04 -1.062965e-04 -4.822585e-04 1.359156e-04 2.250489e-04
          1.967596e-04 2.320868e-04 2.464181e-05 2.098334e-04 6.509167e-05 3.649229e-05
          2.072812e-05 -1.275220e-04 -1.129436e-05 6.312420e-05 1.834010e-04 2.918944e-04
          -4.586353e-05 -3.045620e-04 -3.583051e-04 -2.990169e-04 -1.537453e-04 1.005071e-05
          1.294664e-04 4.764923e-04 6.601243e-04 -5.815546e-04 2.137142e-04 2.265433e-04
          5.435322e-05 1.109009e-04 1.349125e-04 5.953467e-05 -3.201198e-05 -3.094606e-04
          2.554166e-05 -9.529234e-05 -1.360296e-04 -7.504547e-05 -1.707591e-05 7.082375e-05
          -7.634869e-05 -1.700496e-05 -5.593128e-05 -4.540373e-05 -1.002089e-04 -7.882652e-05
          -5.403311e-05 -9.545015e-05 5.876986e-05 2.328161e-04 -5.276433e-05 -1.013975e-04
          -8.995010e-05 -1.070229e-04 -1.436090e-05 -8.762642e-05 -1.808514e-05 -4.693769e-06
          1.923864e-06 5.988032e-05 6.548295e-06 -2.660219e-05 -8.026744e-05 -1.278533e-04
          3.012856e-05 1.526604e-04 1.778245e-04 1.504796e-04 8.331938e-05 9.033744e-06
          -4.308687e-05 -2.013301e-04 -2.887427e-04 2.517984e-04 -1.733138e-04 -2.158910e-04
          -1.450996e-04 -1.718330e-04 -1.820082e-04 -1.467629e-04 -1.042195e-04 3.155191e-05
          8.721801e-05 7.046496e-05 6.535776e-05 7.308088e-05 7.823102e-05 8.248111e-05
          3.134919e-05 -7.368920e-06 -2.420167e-06 1.911645e-05 1.582166e-05 8.326600e-06
          -4.637626e-05 -8.713758e-05 -6.951136e-05 -4.415376e-05 -8.432097e-05 -9.236526e-05
          -9.093017e-05 -9.247331e-05 -7.933172e-05 -9.166401e-05 -8.605464e-05 -8.464384e-05
          -8.376512e-05 -7.688811e-05 -8.405453e-05 -8.862242e-05 -9.568581e-05 -1.019219e-04
          -7.932615e-05 -6.130256e-05 -5.743969e-05 -6.066305e-05 -6.705886e-05 -7.241388e-05
          -7.789301e-05 -1.018468e-04 -1.141389e-04 -2.480536e-05 -1.753296e-05 5.437346e-06
          1.602360e-05 1.179971e-05 9.406438e-06 1.320444e-05 1.795377e-05 2.588856e-05
          1.318050e-04 1.788345e-04 1.954302e-04 1.702965e-04 1.426747e-04 9.463727e-05
          1.026354e-04 6.264510e-06 4.239990e-05 7.526545e-05 1.044565e-04 7.677266e-05
          -4.079021e-05 -8.995675e-05 -1.575516e-04 -2.237618e-04 -1.116077e-04 -9.271108e-05
          -9.715015e-05 -8.897103e-05 -1.248588e-04 -1.031093e-04 -1.377180e-04 -1.437536e-04
          -1.462424e-04 -1.677075e-04 -1.461522e-04 -1.332570e-04 -1.118335e-04 -9.303867e-05
          -1.551914e-04 -2.028331e-04 -2.121892e-04 -2.004887e-04 -1.691695e-04 -1.317247e-04
          -1.086250e-04 -5.012375e-05 -1.546765e-05 -1.984047e-04 8.858786e-05 1.588563e-04
          1.333927e-04 1.430410e-04 1.452287e-04 1.294939e-04 1.108125e-04 3.813153e-05
          1.691991e-04 -1.098092e-04 -2.063775e-04 -6.864101e-05 5.950913e-05 2.470608e-04
          -8.740300e-05 8.565748e-05 6.413738e-05 1.618662e-04 4.990756e-05 6.202210e-05
          -9.226565e-05 -3.192605e-04 1.377215e-05 4.072979e-04 -2.353469e-04 -3.289856e-04
          -2.998159e-04 -3.358154e-04 -1.207975e-04 -3.178601e-04 -1.717245e-04 -1.424244e-04
          -1.259861e-04 2.915168e-05 -9.099641e-05 -1.683441e-04 -2.928650e-04 -4.053679e-04
          -5.447489e-05 2.149747e-04 2.713253e-04 2.102907e-04 6.251582e-05 -1.016757e-04
          -2.232012e-04 -5.867652e-04 -7.782784e-04 5.281508e-04 -2.300370e-04 -2.155575e-04
          -3.720851e-05 -9.704984e-05 -1.231361e-04 -4.583329e-05 4.822114e-05 3.256523e-04
          -1.068823e-05 2.259224e-04 3.071670e-04 1.877484e-04 7.305672e-05 -1.013401e-04
          1.585493e-04 -7.454339e-06 5.776560e-05 3.312363e-05 1.399420e-04 9.928283e-05
          5.872693e-05 1.458766e-04 -1.530261e-04 -4.901624e-04 6.703704e-05 1.591813e-04
          1.360854e-04 1.692209e-04 -1.351598e-05 1.304409e-04 -5.522842e-06 -3.165195e-05
          -4.470077e-05 -1.592965e-04 -5.459241e-05 1.033703e-05 1.159879e-04 2.096595e-04
          -9.845791e-05 -3.365549e-04 -3.853040e-04 -3.317913e-04 -1.997318e-04 -5.187842e-05
          5.227534e-05 3.601324e-04 5.289644e-04 -5.315464e-04 2.956324e-04 3.715228e-04
          2.288223e-04 2.799242e-04 2.996676e-04 2.308406e-04 1.478040e-04 -1.169866e-04
          -3.307016e-06 -1.721136e-05 -2.227595e-05 -1.605455e-05 -1.028885e-05 -1.710753e-06
          -8.900034e-06 2.296084e-05 2.931115e-05 3.855367e-05 3.376286e-05 2.961851e-05
          -6.118318e-06 -3.547830e-05 -2.232584e-05 -3.277449e-06 -1.814354e-05 -4.906928e-06
          -1.643884e-06 -3.223011e-06 1.523662e-06 -3.638349e-05 -3.223019e-05 -3.095455e-05
          -2.865686e-05 9.090677e-06 7.662360e-06 3.488753e-06 -3.324213e-06 -1.185660e-05
          -1.165130e-05 -1.338500e-05 -1.182775e-05 -1.462764e-05 -2.111011e-05 -2.835377e-05
          -3.399764e-05 -5.031136e-05 -5.464393e-05 2.482006e-05 1.211584e-05 2.142663e-05
          3.098058e-05 2.796812e-05 2.626599e-05 2.953272e-05 3.386411e-05 4.525798e-05
          3.298008e-05 -1.555394e-05 -3.112254e-05 -7.225724e-06 1.418225e-05 4.478922e-05
          -3.096474e-05 -2.653505e-05 -4.357482e-05 -3.891061e-05 -6.067227e-05 -5.819224e-05
          -8.420505e-05 -1.237216e-04 -6.341916e-05 1.032791e-05 -7.453631e-05 -6.447990e-05
          -5.712620e-05 -6.405315e-05 -4.043245e-05 -1.217547e-04 -9.904560e-05 -9.392400e-05
          -8.854979e-05 -9.914990e-06 -2.233181e-05 -3.555627e-05 -5.803899e-05 -8.195668e-05
          -4.976290e-05 -2.682567e-05 -1.807592e-05 -2.892151e-05 -5.379333e-05 -7.891858e-05
          -9.637218e-05 -1.591428e-04 -1.873581e-04 5.177840e-05 -8.478507e-05 -9.954967e-05
          -7.510104e-05 -8.706839e-05 -9.196452e-05 -7.862418e-05 -6.196129e-05 -9.685835e-06
          1.024555e-05 1.611022e-04 2.147124e-04 1.391457e-04 6.550270e-05 -4.750336e-05
          8.644895e-05 -7.568464e-05 -5.825022e-05 -9.371049e-05 -2.922155e-05 -4.985891e-05
          -4.616061e-05 2.775496e-05 -1.564141e-04 -3.642385e-04 7.031143e-06 8.014497e-05
          6.640007e-05 8.652331e-05 -4.109647e-05 2.103490e-05 -6.584787e-05 -8.230235e-05
          -8.901865e-05 -1.287019e-04 -5.602102e-05 -1.402281e-05 5.299627e-05 1.103363e-04
          -1.043167e-04 -2.703648e-04 -3.015181e-04 -2.678927e-04 -1.835015e-04 -8.585874e-05
          -1.525377e-05 1.798477e-04 2.885091e-04 -3.878240e-04 1.084845e-04 1.267035e-04
          2.680290e-05 5.750003e-05 7.006553e-05 2.657949e-05 -2.561627e-05 -1.870789e-04
          9.045532e-05 -2.294298e-05 -6.079474e-05 -4.152426e-06 4.779560e-05 1.228989e-04
          -4.100851e-05 -2.406496e-05 -5.292965e-05 -2.825681e-05 -7.648571e-05 -6.564758e-05
          -9.470450e-05 -1.655884e-04 -2.420257e-05 1.408525e-04 -1.191724e-04 -1.578848e-04
          -1.464259e-04 -1.617170e-04 -7.856300e-05 -1.625810e-04 -1.017082e-04 -8.959502e-05
          -8.268256e-05 -1.444712e-05 -6.175227e-05 -9.268141e-05 -1.430395e-04 -1.886690e-04
          -4.850405e-05 6.002463e-05 8.359047e-05 5.835075e-05 -1.865304e-06 -6.663681e-05
          -1.133359e-04 -2.628088e-04 -3.429529e-04 1.798357e-04 -1.607356e-04 -1.789064e-04
          -1.129088e-04 -1.384219e-04 -1.488006e-04 -1.170112e-04 -7.807073e-05 4.047461e-05
          7.380945e-05 2.206827e-04 2.730054e-04 1.996470e-04 1.271699e-04 1.355656e-05
          1.202868e-04 -8.369543e-05 -6.378526e-05 -8.652154e-05 -2.122561e-05 -4.288597e-05
          -4.653660e-05 2.245914e-05 -1.563425e-04 -3.589269e-04 -2.423785e-05 1.897172e-05
          2.851971e-06 2.306414e-05 -9.057487e-05 1.289971e-05 -7.007743e-05 -8.621021e-05
          -9.509430e-05 -1.822848e-04 -1.186871e-04 -7.757686e-05 -1.113767e-05 4.935580e-05
          -1.320439e-04 -2.696686e-04 -2.980584e-04 -2.651833e-04 -1.823070e-04 -8.620918e-05
          -1.795608e-05 1.688106e-04 2.674052e-04 -4.011389e-04 9.884506e-05 1.310300e-04
          3.553977e-05 6.578352e-05 7.794521e-05 3.539061e-05 -1.580846e-05 -1.786170e-04
          8.142692e-05 2.053470e-05 5.144763e-07 3.124725e-05 5.898947e-05 9.798587e-05
          -6.043475e-06 -2.953587e-05 -4.836795e-05 -3.322584e-05 -5.864572e-05 -5.127888e-05
          -5.732489e-05 -8.849538e-05 -1.064178e-05 7.862190e-05 -7.753144e-05 -1.158276e-04
          -1.114810e-04 -1.195212e-04 -6.900560e-05 -8.757362e-05 -5.306060e-05 -4.652024e-05
          -4.423330e-05 -3.697481e-05 -6.660941e-05 -8.303316e-05 -1.092915e-04 -1.309009e-04
          -3.885224e-05 3.419782e-05 4.812773e-05 3.451452e-05 2.211831e-06 -3.223871e-05
          -5.735493e-05 -1.396775e-04 -1.876364e-04 8.334530e-05 -1.040365e-04 -1.130750e-04
          -7.785476e-05 -9.149111e-05 -9.695256e-05 -7.980155e-05 -5.883207e-05 3.879292e-06
          1.160055e-05 7.776330e-05 1.007609e-04 6.838458e-05 3.754676e-05 -9.132201e-06
          5.227963e-05 -2.725074e-05 -2.019315e-05 -3.380910e-05 -5.164458e-06 -7.787269e-06
          3.203785e-05 8.945965e-05 1.131698e-05 -8.310499e-05 3.969335e-05 3.074617e-05
          2.080693e-05 2.998226e-05 -9.101900e-06 8.687207e-05 5.480087e-05 4.779207e-05
          4.120342e-05 -5.042310e-05 -3.002535e-05 -1.154225e-05 1.943492e-05 5.133202e-05
          -1.018902e-06 -3.821765e-05 -4.964443e-05 -3.501985e-05 2.944849e-07 3.925696e-05
          6.705363e-05 1.505469e-04 1.881067e-04 -1.366985e-04 4.919683e-05 5.695159e-05
          1.663720e-05 3.140678e-05 3.782927e-05 1.928039e-05 -3.212877e-06 -7.337174e-05
          -1.866785e-05 4.104406e-05 6.066923e-05 3.161493e-05 5.121846e-06 -3.336066e-05
          4.643824e-05 1.217660e-05 2.710388e-05 1.927887e-05 4.584654e-05 4.534500e-05
          9.263643e-05 1.514847e-04 7.952125e-05 -1.035866e-05 8.309014e-05 5.821033e-05
          4.789024e-05 5.649100e-05 3.060654e-05 1.492908e-04 1.230442e-04 1.167717e-04
          1.091377e-04 -7.854012e-06 4.774959e-06 2.122955e-05 4.965680e-05 8.120651e-05
          5.289037e-05 3.473541e-05 2.488883e-05 3.816517e-05 6.874849e-05 1.000475e-04
          1.218801e-04 1.979192e-04 2.288821e-04 -7.550346e-05 8.134288e-05 9.484054e-05
          6.336707e-05 7.805734e-05 8.440804e-05 6.787538e-05 4.761485e-05 -1.619649e-05
          -7.980869e-05 -1.174693e-04 -1.321433e-04 -1.126036e-04 -9.110373e-05 -5.411668e-05
          -4.644569e-05 5.466576e-05 5.082346e-05 5.101406e-05 3.288666e-05 4.748681e-05
          1.005051e-04 1.151663e-04 1.626640e-04 2.090391e-04 9.476632e-05 5.550671e-05
          5.715135e-05 5.198573e-05 9.470096e-05 1.206183e-04 1.482635e-04 1.527355e-04
          1.523026e-04 1.199937e-04 9.470440e-05 8.395078e-05 6.779758e-05 5.686110e-05
          1.337610e-04 1.941521e-04 2.024266e-04 1.937737e-04 1.694766e-04 1.379492e-04
          1.158731e-04 6.881839e-05 3.746827e-05 1.819949e-04 6.971929e-07 -1.671847e-05
          1.245348e-05 6.495261e-06 4.670835e-06 1.641771e-05 3.030499e-05 7.720388e-05
          -1.620095e-04 -1.576398e-04 -1.578645e-04 -1.593675e-04 -1.566157e-04 -1.450456e-04
          -6.660560e-05 5.035574e-05 4.753556e-05 2.267068e-05 1.915031e-05 3.240892e-05
          1.094432e-04 1.572856e-04 1.538446e-04 1.416612e-04 1.525746e-04 1.572297e-04
          1.573469e-04 1.570064e-04 1.560143e-04 1.650495e-04 1.684809e-04 1.686306e-04
          1.682615e-04 1.646945e-04 1.652140e-04 1.658902e-04 1.671880e-04 1.682122e-04
          1.628154e-04 1.570539e-04 1.548864e-04 1.552806e-04 1.528223e-04 1.455566e-04
          1.425750e-04 1.532209e-04 1.583011e-04 1.190452e-04 4.174125e-05 9.857815e-06
          1.028949e-05 1.286821e-05 1.486060e-05 1.514882e-05 1.514101e-05 2.508915e-05
          -1.804853e-04 -4.199100e-05 4.504575e-06 -6.412279e-05 -1.256876e-04 -2.115720e-04
          6.366364e-06 1.287542e-05 3.242462e-05 -2.113431e-05 3.300630e-05 2.898851e-05
          1.154599e-04 2.325952e-04 6.419954e-05 -1.359953e-04 1.953911e-04 2.565076e-04
          2.437507e-04 2.614268e-04 1.527833e-04 2.346044e-04 1.624092e-04 1.479970e-04
          1.407698e-04 8.332128e-05 1.450673e-04 1.828838e-04 2.438091e-04 2.971553e-04
          1.113259e-04 -3.379034e-05 -6.349380e-05 -3.320466e-05 3.831924e-05 1.149125e-04
          1.723056e-04 3.570228e-04 4.575024e-04 -1.882937e-04 1.682032e-04 1.569785e-04
          7.231128e-05 1.031123e-04 1.165428e-04 7.848980e-05 3.209071e-05 -1.014490e-04
          -3.568784e-05 -1.552689e-04 -1.976623e-04 -1.377676e-04 -7.915715e-05 1.145505e-05
          -8.754708e-05 5.586218e-05 3.801524e-05 5.827429e-05 5.574818e-06 2.284934e-05
          2.415606e-05 -3.268125e-05 1.136049e-04 2.794370e-04 2.069752e-06 -3.875397e-05
          -2.618388e-05 -4.252058e-05 5.119258e-05 -2.559488e-05 4.209555e-05 5.517246e-05
          6.198950e-05 1.243761e-04 7.154234e-05 3.831001e-05 -1.552021e-05 -6.379887e-05
          8.875980e-05 2.053128e-04 2.289965e-04 2.022113e-04 1.351736e-04 5.802531e-05
          3.011733e-06 -1.500720e-04 -2.320535e-04 3.100203e-04 -9.222185e-05 -1.168217e-04
          -3.972409e-05 -6.442865e-05 -7.436610e-05 -3.988104e-05 1.697704e-06 1.329199e-04
          -3.923623e-05 2.101975e-04 2.955297e-04 1.709698e-04 5.261594e-05 -1.260370e-04
          1.545258e-04 -2.266357e-05 3.352348e-05 -6.376024e-06 1.033725e-04 7.205921e-05
          9.566286e-05 2.289810e-04 -8.010513e-05 -4.363166e-04 1.243288e-04 1.940375e-04
          1.670450e-04 2.014554e-04 1.866405e-05 2.166161e-04 7.990478e-05 5.279022e-05
          3.668918e-05 -1.318777e-04 -2.897695e-05 3.992998e-05 1.520141e-04 2.552018e-04
          -4.242588e-05 -2.699943e-04 -3.196901e-04 -2.638709e-04 -1.274063e-04 2.416309e-05
          1.319107e-04 4.551437e-04 6.255381e-04 -5.211266e-04 2.853114e-04 3.421805e-04
          1.916401e-04 2.462401e-04 2.681891e-04 1.968435e-04 1.102966e-04 -1.609347e-04
          -7.053767e-07 2.501160e-07 -6.512366e-07 3.472235e-08 2.135381e-06 6.366749e-06
          1.961729e-05 2.066493e-05 2.324502e-05 2.721958e-05 2.835121e-05 3.744216e-05
          9.225740e-05 1.283074e-04 1.301769e-04 1.228392e-04 6.562468e-05 5.357994e-06
          -3.719024e-07 3.425641e-07 2.530358e-05 1.288231e-04 1.372840e-04 1.374467e-04
          1.319631e-04 2.049029e-05 3.619343e-06 3.981418e-06 6.602057e-06 1.696896e-05
          7.804487e-05 1.300097e-04 1.330209e-04 1.330663e-04 1.308821e-04 1.250102e-04
          1.200596e-04 1.187727e-04 1.049983e-04 5.904884e-05 1.626322e-05 1.838014e-05
          2.425374e-05 2.679476e-05 2.829297e-05 2.874424e-05 2.894202e-05 2.851528e-05
          -7.670058e-05 -5.708628e-05 -5.115716e-05 -5.922673e-05 -6.404155e-05 -6.673452e-05
          -1.503163e-05 -5.504226e-07 -1.130049e-05 -3.554576e-05 -3.131709e-05 -1.448280e-05
          9.831256e-05 1.782248e-04 1.618506e-04 1.295261e-04 1.276166e-04 8.613644e-05
          7.953289e-05 8.167441e-05 8.600225e-05 1.838739e-04 1.846301e-04 1.832114e-04
          1.777222e-04 7.932682e-05 7.400443e-05 7.948872e-05 8.996216e-05 1.056637e-04
          1.301288e-04 1.527707e-04 1.511393e-04 1.548039e-04 1.605700e-04 1.632791e-04
          1.667502e-04 1.916746e-04 1.929506e-04 5.299959e-05 5.212903e-06 -2.460298e-05
          -3.443905e-05 -2.836260e-05 -2.445837e-05 -2.834086e-05 -3.332478e-05 -4.174642e-05
          -1.245842e-04 -1.198996e-04 -1.189003e-04 -1.198908e-04 -1.174905e-04 -1.074380e-04
          -5.634849e-05 4.010849e-06 -1.329181e-05 -4.554483e-05 -5.008245e-05 -3.146982e-05
          7.726995e-05 1.461677e-04 1.474708e-04 1.377416e-04 1.335541e-04 1.202782e-04
          1.183600e-04 1.178631e-04 1.203057e-04 1.549160e-04 1.610565e-04 1.613409e-04
          1.595730e-04 1.285080e-04 1.256373e-04 1.268246e-04 1.292947e-04 1.334608e-04
          1.433452e-04 1.516061e-04 1.508856e-04 1.510937e-04 1.485918e-04 1.425213e-04
          1.409207e-04 1.494124e-04 1.486194e-04 9.197946e-05 -1.047113e-05 -5.601400e-05
          -5.950476e-05 -5.740104e-05 -5.496886e-05 -5.453063e-05 -5.414300e-05 -4.181372e-05
          -9.852624e-05 -1.131624e-04 -1.186216e-04 -1.107757e-04 -1.008054e-04 -8.086652e-05
          -5.925606e-05 1.108925e-05 -3.056065e-06 -2.336911e-05 -3.464691e-05 -2.144594e-05
          4.013721e-05 7.029532e-05 9.194707e-05 1.111048e-04 8.233496e-05 8.316072e-05
          8.518360e-05 8.231343e-05 9.160283e-05 7.735439e-05 8.950493e-05 9.158688e-05
          9.282417e-05 1.095251e-04 1.041479e-04 9.975846e-05 9.290150e-05 8.586625e-05
          9.926214e-05 1.084652e-04 1.105499e-04 1.067727e-04 9.559884e-05 8.103006e-05
          7.273535e-05 5.672397e-05 4.787632e-05 1.006678e-04 -1.962222e-05 -5.491975e-05