<?xml version="1.0"?>
<VTKFile type="RectilinearGrid" version="0.1" byte_order="LittleEndian">
  <RectilinearGrid WholeExtent="0 47 0 47 0 47">
    <Piece Extent="0 47 0 47 0 47">
      <PointData Scalars="concentration">
        <DataArray type="Float32" Name="concentration" NumberOfComponents="1" format="ascii">
          5.905088e-05 8.767567e-05 9.751792e-05 8.641579e-05 7.710377e-05 6.378954e-05
          6.744188e-05 -4.984956e-05 -6.607220e-05 -7.751333e-05 -6.603657e-05 -4.301305e-05
          1.165329e-04 2.343506e-04 2.138694e-04 1.676958e-04 9.783883e-05 -3.390491e-05
          -5.086024e-05 -4.629471e-05 -1.460026e-05 2.358375e-04 2.415559e-04 2.392985e-04
          2.253614e-04 -3.968811e-05 -6.498566e-05 -5.626750e-05 -3.770429e-05 -2.655884e-06
          1.018269e-04 1.953128e-04 1.980672e-04 2.036946e-04 2.138822e-04 2.214677e-04
          2.264774e-04 2.542792e-04 2.370717e-04 3.200377e-06 -3.630549e-05 -5.272096e-05
          -6.520866e-05 -5.598940e-05 -5.037813e-05 -5.640326e-05 -6.462082e-05 -8.867401e-05
          1.002940e-04 1.260296e-04 1.349844e-04 1.256841e-04 1.175599e-04 1.046832e-04
          8.860927e-05 -6.122903e-05 -7.892535e-05 -8.451489e-05 -7.312951e-05 -4.868708e-05
          1.177357e-04 2.396896e-04 2.242627e-04 1.820022e-04 8.267574e-05 -7.394003e-05
          -9.296237e-05 -8.844294e-05 -4.580226e-05 2.398900e-04 2.495298e-04 2.475221e-04
          2.317426e-04 -7.299954e-05 -1.056470e-04 -9.752047e-05 -7.924525e-05 -4.135871e-05
          9.021037e-05 2.068995e-04 2.118705e-04 2.168559e-04 2.255124e-04 2.314338e-04
          2.346464e-04 2.563066e-04 2.307663e-04 -2.102583e-06 -5.119732e-05 -6.286574e-05
          -7.269331e-05 -6.379917e-05 -5.823364e-05 -6.341268e-05 -7.069741e-05 -9.405106e-05
          8.316113e-05 2.988644e-04 3.734669e-04 2.688831e-04 1.693652e-04 1.776871e-05
          2.042607e-04 -9.294575e-05 -6.983682e-05 -1.065388e-04 -1.161830e-05 -1.468597e-05
          1.482457e-04 3.581540e-04 1.065483e-04 -2.041989e-04 1.433884e-04 6.002501e-05
          2.227168e-05 5.282120e-05 -5.284302e-05 3.483061e-04 2.505234e-04 2.277267e-04
          2.015510e-04 -1.937741e-04 -1.420550e-04 -8.146412e-05 2.152647e-05 1.346363e-04
          1.847811e-05 -5.587542e-05 -8.972237e-05 -4.214491e-05 7.166158e-05 1.959414e-04
          2.835236e-04 5.517117e-04 6.605130e-04 -4.306595e-04 1.537913e-04 1.855172e-04
          5.815958e-05 1.076314e-04 1.293229e-04 6.952092e-05 -3.883997e-06 -2.346155e-04
          1.454171e-04 -2.875466e-05 -8.940176e-05 -2.087001e-08 8.505315e-05 2.112350e-04
          -1.585534e-05 1.214138e-05 -2.494592e-05 2.511390e-05 -4.683495e-05 -1.069751e-05
          6.025265e-05 2.716756e-05 2.504604e-04 4.903600e-04 -4.331867e-05 -2.392017e-04
          -2.345262e-04 -2.565295e-04 -7.032832e-05 3.211695e-05 1.454940e-04 1.646275e-04
          1.630169e-04 1.760771e-05 -9.418514e-05 -1.415747e-04 -2.139668e-04 -2.614809e-04
          9.438421e-05 3.803923e-04 4.238821e-04 3.848253e-04 2.863730e-04 1.726863e-04
          8.895586e-05 -1.466217e-04 -3.022185e-04 4.095694e-04 -2.089354e-04 -2.283662e-04
          -1.120512e-04 -1.461660e-04 -1.591708e-04 -1.084534e-04 -4.783681e-05 1.347086e-04
          4.165461e-05 1.914771e-04 2.425719e-04 1.695047e-04 1.004273e-04 -4.188562e-06
          1.427103e-04 -3.111874e-05 -4.031041e-06 -2.198118e-05 4.539977e-05 4.006545e-05
          1.348112e-04 2.688778e-04 9.055879e-05 -1.282587e-04 1.146139e-04 5.889436e-05
          3.312688e-05 5.485067e-05 -1.724683e-05 2.608715e-04 1.919691e-04 1.759712e-04
          1.578468e-04 -1.164911e-04 -8.082575e-05 -3.894310e-05 3.238301e-05 1.106186e-04
          2.929574e-05 -2.356663e-05 -4.753972e-05 -1.424845e-05 6.492440e-05 1.500951e-04
          2.095698e-04 3.972539e-04 4.746373e-04 -2.786449e-04 1.447733e-04 1.793690e-04
          9.424832e-05 1.294411e-04 1.443890e-04 1.025459e-04 5.110192e-05 -1.121688e-04
          -1.273315e-05 1.396958e-04 1.913335e-04 1.164644e-04 4.655684e-05 -5.748308e-05
          1.172579e-04 -8.355180e-06 2.292135e-05 -1.955730e-07 6.724070e-05 6.010979e-05
          1.453884e-04 2.733558e-04 8.934352e-05 -1.339796e-04 1.400013e-04 1.116944e-04
          8.836985e-05 1.101622e-04 2.700640e-05 2.667413e-04 1.938538e-04 1.775981e-04
          1.615148e-04 -6.958549e-05 -2.631699e-05 1.597691e-05 8.733947e-05 1.621992e-04
          5.204683e-05 -2.580151e-05 -5.221415e-05 -1.830417e-05 6.211294e-05 1.481064e-04
          2.087802e-04 4.030136e-04 4.895705e-04 -2.619939e-04 1.713690e-04 2.027824e-04
          1.160498e-04 1.517627e-04 1.667396e-04 1.241251e-04 7.176746e-05 -9.195742e-05
          4.358860e-05 -1.813522e-04 -2.602863e-04 -1.464639e-04 -3.613286e-05 1.319440e-04
          -9.919523e-05 6.849315e-05 2.851178e-05 7.835383e-05 -1.790342e-05 2.250641e-05
          7.420281e-05 2.229220e-06 2.835318e-04 5.933577e-04 -1.092428e-05 -1.746992e-04
          -1.597205e-04 -1.891670e-04 1.912849e-05 1.271752e-05 1.497992e-04 1.745115e-04
          1.799513e-04 1.455351e-04 2.377524e-05 -3.827801e-05 -1.355193e-04 -2.117544e-04
          1.606484e-04 4.539844e-04 5.040867e-04 4.537516e-04 3.268408e-04 1.798948e-04
          7.361282e-05 -2.215660e-04 -3.986146e-04 5.693148e-04 -2.142637e-04 -2.515090e-04
          -1.035198e-04 -1.484765e-04 -1.661828e-04 -1.009558e-04 -2.271321e-05 2.196061e-04
          -2.660142e-05 2.924837e-04 4.022537e-04 2.452209e-04 9.742931e-05 -1.238038e-04
          2.175518e-04 -7.503919e-05 -2.735096e-05 -9.316547e-05 4.454411e-05 2.761512e-05
          1.928395e-04 4.509320e-04 6.832851e-05 -3.903256e-04 2.346964e-04 2.274948e-04
          1.832557e-04 2.274177e-04 2.877978e-05 4.393790e-04 2.808752e-04 2.469256e-04
          2.180657e-04 -1.660432e-04 -5.971816e-05 2.887928e-05 1.764068e-04 3.243952e-04
          3.867363e-05 -1.703678e-04 -2.281047e-04 -1.574131e-04 1.249351e-05 1.984898e-04
          3.314478e-04 7.389025e-04 9.309028e-04 -6.135370e-04 2.980603e-04 3.401121e-04
          1.487417e-04 2.204620e-04 2.509411e-04 1.616647e-04 5.260202e-05 -2.845669e-04
          7.469987e-05 4.145535e-05 2.955171e-05 4.890519e-05 6.861186e-05 9.844352e-05
          4.024763e-05 -1.727525e-05 -3.597516e-05 -2.665073e-05 -4.025629e-05 -1.396304e-05
          1.142937e-04 1.832995e-04 2.358653e-04 2.756306e-04 6.484910e-05 -8.559613e-05
          -9.576823e-05 -9.911769e-05 -1.983255e-05 1.856600e-04 2.240118e-04 2.282032e-04
          2.180598e-04 -1.058485e-05 -6.237723e-05 -7.096847e-05 -8.013006e-05 -7.040366e-05
          1.105399e-04 2.622991e-04 2.772549e-04 2.693592e-04 2.463444e-04 2.162144e-04
          1.935076e-04 1.416815e-04 8.300507e-05 1.384402e-04 -7.402891e-05 -8.783933e-05
          -5.974063e-05 -6.336406e-05 -6.345401e-05 -5.223373e-05 -3.959338e-05 -1.304577e-06
          9.636200e-05 1.228975e-04 1.318056e-04 1.212544e-04 1.116583e-04 9.595357e-05
          9.042851e-05 -3.364089e-05 -3.869325e-05 -3.467673e-05 -2.104291e-05 -4.626997e-06
          1.161867e-04 2.094789e-04 1.877552e-04 1.433985e-04 6.615717e-05 -6.876918e-05
          -8.558999e-05 -8.057671e-05 -4.534002e-05 2.073883e-04 2.120070e-04 2.095887e-04
          1.955578e-04 -7.424960e-05 -1.012912e-04 -9.327805e-05 -7.538212e-05 -4.074057e-05
          6.948051e-05 1.675414e-04 1.708694e-04 1.764401e-04 1.870038e-04 1.950674e-04
          1.990791e-04 2.236686e-04 2.052798e-04 -1.098817e-05 -1.424177e-05 -8.806212e-06
          -1.745270e-05 -8.349376e-06 -3.463666e-06 -9.581790e-06 -1.794931e-05 -4.727562e-05
          1.306215e-04 1.643169e-04 1.757992e-04 1.612630e-04 1.467226e-04 1.217470e-04
          1.126970e-04 -3.122332e-05 -2.754322e-05 -1.402450e-05 4.942185e-06 1.393402e-05
          9.856990e-05 1.730009e-04 1.395853e-04 8.566657e-05 3.050418e-05 -9.627940e-05
          -1.132313e-04 -1.068762e-04 -7.908832e-05 1.676174e-04 1.652901e-04 1.618250e-04
          1.478937e-04 -1.157776e-04 -1.380700e-04 -1.280689e-04 -1.070729e-04 -7.049201e-05
          2.502535e-05 1.114110e-04 1.130727e-04 1.205404e-04 1.366529e-04 1.518004e-04
          1.598780e-04 1.932833e-04 1.816732e-04 -5.535903e-05 4.004119e-06 2.705257e-05
          1.464227e-05 2.503591e-05 2.992337e-05 2.112621e-05 9.573673e-06 -3.337691e-05
          1.532227e-04 1.571931e-04 1.585246e-04 1.583408e-04 1.564620e-04 1.494024e-04
          1.023651e-04 -2.067285e-05 -1.633368e-05 1.019148e-05 1.772825e-05 2.360501e-05
          6.630678e-05 1.001766e-04 1.002659e-04 8.957589e-05 -1.711302e-05 -1.363282e-04
          -1.484593e-04 -1.460233e-04 -1.021714e-04 9.398931e-05 1.040259e-04 1.035896e-04
          9.294879e-05 -1.227419e-04 -1.530077e-04 -1.512574e-04 -1.442142e-04 -1.225902e-04
          -7.331013e-06 9.271681e-05 9.937165e-05 1.004624e-04 1.018791e-04 1.016231e-04
          9.802900e-05 9.340938e-05 6.593173e-05 -1.740062e-05 -1.531031e-05 1.441602e-05
          2.015376e-05 2.363538e-05 2.521358e-05 2.427559e-05 2.240650e-05 7.049845e-06
          1.619838e-04 1.531106e-04 1.503537e-04 1.563193e-04 1.595579e-04 1.596146e-04
          9.192337e-05 -2.656579e-05 -2.515372e-05 3.655200e-06 5.587323e-06 9.523787e-06
          3.034154e-05 4.396566e-05 5.894554e-05 6.870121e-05 -4.921214e-05 -1.539502e-04
          -1.630136e-04 -1.625493e-04 -1.168756e-04 3.788033e-05 5.193456e-05 5.286232e-05
          4.465765e-05 -1.289919e-04 -1.593619e-04 -1.611222e-04 -1.605701e-04 -1.473059e-04
          -3.529820e-05 6.076821e-05 6.900664e-05 6.729915e-05 6.268856e-05 5.699008e-05
          4.954621e-05 2.870662e-05 -3.229125e-06 -1.362644e-05 -3.457526e-05 -6.375417e-06
          5.311570e-06 5.182941e-06 5.141272e-06 7.568191e-06 9.991087e-06 7.622538e-06
          1.139798e-04 1.739016e-04 1.952220e-04 1.663279e-04 1.364526e-04 8.738329e-05
          1.025575e-04 -4.440272e-05 -3.353798e-05 -2.733733e-05 2.482511e-06 -4.172276e-06
          1.011084e-05 5.073697e-05 -1.997242e-05 -1.047980e-04 -2.615906e-05 -6.849676e-05
          -8.094103e-05 -7.186473e-05 -9.460334e-05 4.334551e-05 1.516364e-05 8.658048e-06
          -1.736885e-07 -1.417969e-04 -1.318087e-04 -1.146951e-04 -8.495614e-05 -5.042973e-05
          -6.448931e-05 -6.874614e-05 -7.666858e-05 -6.311978e-05 -2.949861e-05 8.886483e-06
          3.407514e-05 1.049861e-04 1.302525e-04 -1.730865e-04 3.135530e-05 6.140202e-05
          2.680241e-05 4.026114e-05 4.573370e-05 2.844524e-05 7.242989e-06 -6.559321e-05
          7.455223e-05 1.128022e-05 -9.836408e-06 2.209636e-05 5.077976e-05 9.147992e-05
          -8.769473e-06 -1.638286e-05 -3.114326e-05 -1.255140e-05 -3.860348e-05 -3.307309e-05
          -5.124420e-05 -9.151579e-05 -1.236024e-05 7.974213e-05 -7.698985e-05 -1.102359e-04
          -1.050343e-04 -1.135603e-04 -6.225919e-05 -9.100464e-05 -5.634928e-05 -4.949923e-05
          -4.667137e-05 -2.906196e-05 -5.864582e-05 -7.586725e-05 -1.033795e-04 -1.270473e-04
          -3.703359e-05 3.386736e-05 4.772085e-05 3.368147e-05 2.394416e-07 -3.552474e-05
          -6.209793e-05 -1.470244e-04 -1.946243e-04 9.301421e-05 -9.139696e-05 -9.595268e-05
          -5.803300e-05 -7.226093e-05 -7.809014e-05 -6.029899e-05 -3.871165e-05 2.536394e-05
          9.166261e-06 1.144995e-04 1.517741e-04 9.910966e-05 4.757395e-05 -3.163623e-05
          6.240142e-05 -4.820768e-05 -3.374035e-05 -5.612993e-05 -1.081812e-05 -2.649863e-05
          -3.081873e-05 1.632013e-05 -1.128727e-04 -2.579092e-04 1.905078e-06 5.431573e-05
          4.484953e-05 5.867199e-05 -3.013398e-05 1.113477e-05 -5.008750e-05 -6.148808e-05
          -6.610576e-05 -9.184800e-05 -4.105308e-05 -1.183360e-05 3.494718e-05 7.460936e-05
          -7.609055e-05 -1.927194e-04 -2.146195e-04 -1.911226e-04 -1.320771e-04 -6.365853e-05
          -1.464405e-05 1.213084e-04 1.976841e-04 -2.713606e-04 8.177459e-05 9.786912e-05
          2.888689e-05 5.015146e-05 5.877261e-05 2.848967e-05 -8.045660e-06 -1.216888e-04
          5.840738e-05 4.487645e-06 -1.375568e-05 1.326920e-05 3.773934e-05 7.261733e-05
          -5.799533e-06 4.922285e-07 -7.178327e-06 1.233838e-05 -9.155300e-06 -5.763488e-06
          -2.880424e-05 -6.782389e-05 -1.902275e-06 7.518697e-05 -5.923523e-05 -8.813667e-05
          -8.359315e-05 -9.071317e-05 -4.578702e-05 -6.800344e-05 -3.870615e-05 -3.298577e-05
          -3.068099e-05 -1.835137e-05 -4.411503e-05 -5.888602e-05 -8.229646e-05 -1.023229e-04
          -2.437443e-05 3.682284e-05 4.855956e-05 3.668498e-05 8.243873e-06 -2.276580e-05
          -4.611384e-05 -1.179482e-04 -1.581112e-04 8.814158e-05 -6.141601e-05 -5.938511e-05
          -2.551354e-05 -3.724395e-05 -4.224315e-05 -2.718270e-05 -9.050134e-06 4.407704e-05
          7.794287e-05 3.208578e-05 1.564568e-05 3.899680e-05 6.058400e-05 9.112424e-05
          3.041487e-05 3.384351e-05 3.991195e-05 7.301080e-05 5.807687e-05 6.244281e-05
          5.349809e-05 2.881611e-05 8.357808e-05 1.428108e-04 -2.125875e-05 -9.667603e-05
          -9.742977e-05 -1.022407e-04 -4.158747e-05 2.592884e-05 5.608472e-05 6.082070e-05
          5.821567e-05 -2.616794e-05 -6.273721e-05 -7.535530e-05 -9.313764e-05 -1.016772e-04
          1.733404e-05 1.139958e-04 1.266522e-04 1.168241e-04 9.177365e-05 6.156154e-05
          3.721468e-05 -2.592661e-05 -7.130605e-05 1.108913e-04 -1.583746e-05 7.183893e-06
          4.351861e-05 3.584571e-05 3.223026e-05 4.503462e-05 5.991746e-05 9.912264e-05
          3.084893e-05 2.927121e-04 3.824865e-04 2.523502e-04 1.279131e-04 -6.148046e-05
          2.132279e-04 -2.232652e-05 4.202683e-05 1.643799e-05 1.351521e-04 1.046101e-04
          1.458691e-04 2.991014e-04 -2.435672e-05 -4.021792e-04 1.275027e-04 1.394931e-04
          1.053205e-04 1.425727e-04 -2.486133e-05 2.826217e-04 1.450290e-04 1.164681e-04
          9.426019e-05 -1.927481e-04 -1.012439e-04 -2.879542e-05 9.188218e-05 2.103787e-04
          -4.056814e-05 -2.265368e-04 -2.750913e-04 -2.162445e-04 -7.326810e-05 8.400579e-05
          1.938256e-04 5.289448e-04 6.930080e-04 -5.436880e-04 3.026436e-04 3.812558e-04
          2.284036e-04 2.874091e-04 3.109529e-04 2.361233e-04 1.446682e-04 -1.466509e-04
          1.132741e-04 -1.334450e-05 -5.798140e-05 5.993087e-06 6.637025e-05 1.549566e-04
          3.779295e-06 5.731293e-05 5.191026e-05 1.078563e-04 5.940309e-05 7.495064e-05
          6.572736e-05 3.585510e-06 1.580876e-04 3.291875e-04 -4.782222e-05 -1.780382e-04
          -1.730317e-04 -1.882236e-04 -5.448414e-05 3.013072e-06 8.073344e-05 9.420030e-05
          9.392877e-05 4.685027e-06 -7.431928e-05 -1.092094e-04 -1.620182e-04 -1.985942e-04
          4.994395e-05 2.484774e-04 2.789429e-04 2.512106e-04 1.814918e-04 1.001206e-04
          3.833634e-05 -1.310680e-04 -2.389436e-04 2.974438e-04 -9.047268e-05 -7.341115e-05
          1.601016e-05 -8.028113e-06 -1.835189e-05 1.752820e-05 6.018821e-05 1.835263e-04
          1.331626e-04 1.174663e-04 1.116663e-04 1.204341e-04 1.273295e-04 1.337724e-04
          8.248808e-05 1.336509e-05 2.480194e-05 6.081285e-05 6.090471e-05 6.292790e-05
          6.689354e-05 6.630964e-05 8.578864e-05 1.017054e-04 -2.731278e-05 -1.288605e-04
          -1.364065e-04 -1.363594e-04 -8.532617e-05 5.990557e-05 7.667075e-05 7.812641e-05
          7.066986e-05 -9.375278e-05 -1.264993e-04 -1.305641e-04 -1.333144e-04 -1.236777e-04
          -6.841937e-06 9.179873e-05 1.006409e-04 9.768932e-05 8.928833e-05 7.768657e-05
          6.568783e-05 3.815777e-05 4.329434e-06 3.005672e-05 1.078369e-06 3.864953e-05
          5.802777e-05 5.737517e-05 5.663781e-05 6.073034e-05 6.510937e-05 6.791412e-05
          1.491355e-04 2.026197e-04 2.211520e-04 1.954520e-04 1.687960e-04 1.234670e-04
          1.315892e-04 -1.809304e-05 3.071316e-06 2.632413e-05 5.664048e-05 4.971846e-05
          5.892506e-05 9.481214e-05 3.013705e-05 -5.011177e-05 -2.136035e-05 -1.019434e-04
          -1.170524e-04 -1.075406e-04 -1.096061e-04 8.471075e-05 6.293868e-05 5.689452e-05
          4.524745e-05 -1.600435e-04 -1.629537e-04 -1.477725e-04 -1.194241e-04 -8.147244e-05
          -5.010634e-05 -1.649946e-05 -2.129337e-05 -8.789660e-06 2.126998e-05 5.375818e-05
          7.326363e-05 1.341538e-04 1.471708e-04 -1.433092e-04 5.435967e-05 1.043011e-04
          7.940936e-05 9.314786e-05 9.828237e-05 8.249927e-05 6.300555e-05 -9.437193e-06
          2.182982e-04 -5.412984e-05 -1.482673e-04 -1.113686e-05 1.171148e-04 3.046754e-04
          -4.692141e-05 4.310047e-05 4.031242e-06 9.399536e-05 -1.627317e-05 1.523037e-05
          -1.954008e-05 -1.654919e-04 1.710666e-04 5.522339e-04 -1.744376e-04 -3.689819e-04
          -3.507541e-04 -3.853816e-04 -1.372702e-04 -1.620562e-04 -3.772624e-06 2.543993e-05
          3.268829e-05 3.540939e-06 -1.408327e-04 -2.156681e-04 -3.331008e-04 -4.261258e-04
          1.865309e-05 3.701197e-04 4.313907e-04 3.712113e-04 2.229766e-04 5.583739e-05
          -6.800397e-05 -4.303098e-04 -6.443420e-04 5.558158e-04 -2.813616e-04 -2.853133e-04
          -1.079380e-04 -1.641824e-04 -1.875345e-04 -1.104427e-04 -1.735521e-05 2.586170e-04
          1.208484e-04 3.627969e-04 4.469139e-04 3.272862e-04 2.109521e-04 3.026257e-05
          2.321512e-04 -8.126321e-05 -3.425289e-05 -5.608833e-05 5.427503e-05 2.708945e-05
          7.253137e-05 2.203759e-04 -7.357130e-05 -4.178216e-04 5.114259e-05 3.943939e-05
          5.122945e-06 3.977555e-05 -1.099949e-04 2.033536e-04 7.773662e-05 5.135565e-05
          2.916704e-05 -2.693999e-04 -1.889990e-04 -1.215309e-04 -9.107961e-06 1.041131e-04
          -1.078377e-04 -2.612161e-04 -3.040162e-04 -2.497194e-04 -1.165482e-04 3.259274e-05
          1.365503e-04 4.412048e-04 5.850754e-04 -5.675090e-04 2.172982e-04 2.881204e-04
          1.430861e-04 1.964826e-04 2.181493e-04 1.488604e-04 6.468497e-05 -2.067482e-04
          1.218553e-04 1.101990e-04 1.066668e-04 1.137597e-04 1.191149e-04 1.234809e-04
          6.156995e-05 -3.613998e-05 -4.328093e-05 -2.705606e-05 -2.896062e-05 -2.208184e-05
          1.145058e-05 3.058893e-05 5.052267e-05 6.606527e-05 -3.657898e-05 -1.200486e-04
          -1.267876e-04 -1.272550e-04 -8.923674e-05 2.751777e-05 4.228343e-05 4.351061e-05
          3.747240e-05 -9.377791e-05 -1.190554e-04 -1.216880e-04 -1.235605e-04 -1.150050e-04
          -2.227927e-05 5.689341e-05 6.446174e-05 6.186854e-05 5.516744e-05 4.750882e-05
          4.028250e-05 1.762074e-05 -1.140154e-05 -1.931496e-06 -5.234855e-05 -4.218392e-05
          -3.212802e-05 -3.356021e-05 -3.376442e-05 -3.027373e-05 -2.621970e-05 -1.975641e-05
          1.126755e-04 6.326247e-05 4.679264e-05 7.344951e-05 9.845096e-05 1.338013e-04
          3.360542e-05 -4.102443e-05 -6.467971e-05 -5.055813e-05 -7.070113e-05 -5.061672e-05
          2.799636e-05 5.781127e-05 1.287173e-04 1.968175e-04 -1.527376e-05 -1.347938e-04
          -1.398866e-04 -1.458630e-04 -7.046989e-05 5.903568e-05 9.993032e-05 1.054935e-04
          9.965682e-05 -5.112811e-05 -9.891338e-05 -1.118109e-04 -1.297577e-04 -1.324793e-04
          3.064259e-05 1.659787e-04 1.825963e-04 1.711766e-04 1.418488e-04 1.078286e-04
          8.242745e-05 9.814619e-06 -5.189953e-05 1.073922e-04 -1.118215e-04 -1.243935e-04
          -9.107999e-05 -1.001347e-04 -1.027253e-04 -8.765732e-05 -6.982005e-05 -1.730476e-05
          1.034607e-04 2.532832e-04 3.057691e-04 2.333686e-04 1.637453e-04 5.602718e-05
          1.626229e-04 -8.855337e-05 -7.697099e-05 -9.982363e-05 -3.317755e-05 -3.428613e-05
          8.548079e-05 2.365193e-04 6.402126e-05 -1.505149e-04 7.410371e-05 -1.951916e-06
          -3.000731e-05 -8.718814e-06 -7.641703e-05 2.285553e-04 1.623726e-04 1.464125e-04
          1.267816e-04 -1.773901e-04 -1.455041e-04 -1.031542e-04 -3.091530e-05 5.080145e-05
          -1.293196e-05 -4.948895e-05 -7.154559e-05 -3.858634e-05 4.078015e-05 1.282220e-04
          1.895173e-04 3.733342e-04 4.435644e-04 -3.235308e-04 8.214261e-05 1.055243e-04
          1.630840e-05 5.045664e-05 6.561693e-05 2.404556e-05 -2.691341e-05 -1.888395e-04
          1.659202e-04 5.170145e-05 1.266262e-05 7.239595e-05 1.286367e-04 2.102729e-04
          2.746570e-05 -3.066206e-05 -6.526273e-05 -3.033760e-05 -7.682903e-05 -4.546579e-05
          4.708498e-05 5.659545e-05 2.092726e-04 3.666659e-04 -3.742465e-05 -2.229276e-04
          -2.255604e-04 -2.397091e-04 -9.733553e-05 5.912230e-05 1.408317e-04 1.534747e-04
          1.476128e-04 -4.549935e-05 -1.330981e-04 -1.636667e-04 -2.088193e-04 -2.303851e-04
          5.842981e-05 2.943529e-04 3.266892e-04 3.008330e-04 2.352894e-04 1.595969e-04
          1.032815e-04 -5.648069e-05 -1.740664e-04 2.561570e-04 -1.815675e-04 -1.974688e-04
          -1.206407e-04 -1.424816e-04 -1.501267e-04 -1.163864e-04 -7.620660e-05 4.301146e-05
          7.854399e-05 2.254060e-04 2.765650e-04 2.055690e-04 1.378882e-04 3.415157e-05
          1.507304e-04 -7.477696e-05 -6.194264e-05 -8.605600e-05 -2.112592e-05 -2.118448e-05
          1.019136e-04 2.531624e-04 8.360015e-05 -1.279365e-04 9.334811e-05 2.023388e-05
          -7.078619e-06 1.382731e-05 -5.236692e-05 2.461718e-04 1.816562e-04 1.661018e-04
          1.469167e-04 -1.501664e-04 -1.189074e-04 -7.752833e-05 -6.792225e-06 7.302498e-05
          9.721024e-06 -2.711056e-05 -4.906655e-05 -1.672811e-05 6.054813e-05 1.449268e-04
          2.042355e-04 3.853392e-04 4.549492e-04 -2.983076e-04 9.171385e-05 1.127683e-04
          2.621309e-05 6.002892e-05 7.503363e-05 3.438097e-05 -1.547792e-05 -1.729371e-04
          1.152395e-04 5.359747e-05 3.244394e-05 6.538525e-05 9.660204e-05 1.416816e-04
          3.461565e-05 -2.327742e-05 -4.450665e-05 -2.323671e-05 -4.775448e-05 -2.548738e-05
          5.643825e-05 8.292379e-05 1.682325e-04 2.512255e-04 -4.118270e-06 -1.429823e-04
          -1.481945e-04 -1.554131e-04 -6.360310e-05 8.409499e-05 1.334102e-04 1.403546e-04
          1.338320e-04 -3.913300e-05 -9.677010e-05 -1.130969e-04 -1.358695e-04 -1.410641e-04
          5.349977e-05 2.141332e-04 2.338972e-04 2.198658e-04 1.833805e-04 1.402103e-04
          1.077119e-04 1.891675e-05 -5.443594e-05 1.520880e-04 -1.082542e-04 -1.166745e-04
          -7.303692e-05 -8.387402e-05 -8.729690e-05 -6.870989e-05 -4.678833e-05 1.737641e-05
          1.139897e-04 1.794995e-04 2.022712e-04 1.715085e-04 1.412156e-04 9.266010e-05
          1.175853e-04 -4.499842e-05 -3.774493e-05 -3.486833e-05 -2.994432e-06 -8.455655e-08
          7.444882e-05 1.568088e-04 8.374874e-05 -1.285764e-05 2.901263e-05 -6.278306e-05
          -8.073746e-05 -7.047241e-05 -7.707682e-05 1.506147e-04 1.277927e-04 1.208491e-04
          1.071865e-04 -1.297892e-04 -1.314933e-04 -1.126270e-04 -7.858942e-05 -3.314323e-05
          -2.439361e-06 3.206535e-05 2.598421e-05 4.049150e-05 7.464379e-05 1.111583e-04
          1.351560e-04 2.109714e-04 2.270807e-04 -1.403553e-04 2.960448e-05 5.353351e-05
          1.878748e-05 3.509465e-05 4.238991e-05 2.433131e-05 1.861383e-06 -7.398594e-05
          7.218533e-05 1.323665e-04 1.531094e-04 1.239058e-04 9.483088e-05 4.880681e-05
          8.595902e-05 -2.271600e-05 -8.843472e-06 -5.753348e-06 2.347670e-05 1.797158e-05
          3.807067e-05 8.174925e-05 9.739576e-06 -7.740287e-05 7.527486e-06 -2.823640e-05
          -3.993599e-05 -3.082024e-05 -5.494886e-05 7.566195e-05 4.766110e-05 4.113507e-05
          3.274093e-05 -9.986912e-05 -8.873276e-05 -7.163049e-05 -4.238089e-05 -8.753243e-06
          -2.854952e-05 -3.833860e-05 -4.694063e-05 -3.340151e-05 -4.870963e-07 3.585991e-05
          6.014671e-05 1.332503e-04 1.608532e-04 -1.426070e-04 5.220479e-05 7.947729e-05
          4.597392e-05 6.000432e-05 6.574306e-05 4.854330e-05 2.741083e-05 -4.353305e-05
          2.318010e-05 -1.474403e-05 -2.792359e-05 -9.305340e-06 7.454719e-06 3.178379e-05
          -1.522912e-05 1.058401e-05 8.676452e-06 2.237422e-05 7.178232e-06 6.055412e-06
          -3.115250e-05 -7.258746e-05 -2.835226e-05 2.644819e-05 -4.723282e-05 -4.565357e-05
          -4.031683e-05 -4.538138e-05 -2.182179e-05 -7.279194e-05 -5.519109e-05 -5.121931e-05
          -4.773599e-05 -7.021585e-07 -1.318417e-05 -2.358381e-05 -4.117235e-05 -5.891304e-05
          -2.560300e-05 -1.267280e-06 5.641788e-06 -2.657621e-06 -2.211586e-05 -4.295266e-05
          -5.841373e-05 -1.073494e-04 -1.298547e-04 5.887182e-05 -3.034595e-05 -2.669109e-05
          -3.458610e-06 -1.208030e-05 -1.595365e-05 -5.620921e-06 6.998772e-06 4.403121e-05
          -4.349256e-05 -4.086330e-05 -3.986416e-05 -4.231384e-05 -4.511534e-05 -4.891092e-05
          -3.399814e-05 6.152381e-06 9.545008e-06 3.586831e-06 3.459610e-06 -5.998505e-06
          -6.054371e-05 -9.581384e-05 -1.036684e-04 -1.033587e-04 -3.064752e-05 3.954204e-05
          4.599244e-05 4.554125e-05 1.641738e-05 -9.543742e-05 -1.061040e-04 -1.065636e-04
          -1.006951e-04 2.141466e-05 4.111708e-05 4.163099e-05 3.993375e-05 2.944454e-05
          -4.323972e-05 -1.054173e-04 -1.099868e-04 -1.093153e-04 -1.059333e-04 -9.995745e-05
          -9.476796e-05 -8.705114e-05 -6.782549e-05 -3.408441e-05 1.498022e-05 1.338302e-05
          7.268358e-06 5.990790e-06 5.005446e-06 3.649136e-06 2.398622e-06 3.714309e-07
          -1.157909e-04 2.068866e-05 6.801546e-05 -1.671266e-06 -6.783524e-05 -1.655719e-04
          1.082944e-05 -1.684003e-05 8.388940e-06 -3.423567e-05 2.142466e-05 -4.097033e-06
          -4.376086e-05 -7.711556e-06 -1.808981e-04 -3.687091e-04 4.255468e-05 1.889793e-04
          1.845791e-04 2.016610e-04 5.816445e-05 -1.079378e-05 -9.793052e-05 -1.128219e-04
          -1.121680e-04 -1.007582e-05 7.555498e-05 1.128788e-04 1.697689e-04 2.081918e-04
          -6.373841e-05 -2.818903e-04 -3.154001e-04 -2.849986e-04 -2.084795e-04 -1.202142e-04
          -5.486705e-05 1.291354e-04 2.488442e-04 -3.154982e-04 1.533795e-04 1.629543e-04
          7.134642e-05 9.813081e-05 1.086442e-04 6.923144e-05 2.201038e-05 -1.191013e-04
          -1.043318e-04 -2.229362e-04 -2.638023e-04 -2.061597e-04 -1.504313e-04 -6.325657e-05
          -1.534532e-04 3.511859e-05 1.004827e-05 1.074568e-05 -4.548488e-05 -3.917700e-05
          -1.042904e-04 -2.060311e-04 -6.494827e-05 1.087117e-04 -5.496040e-05 1.927533e-05
          4.261835e-05 2.469959e-05 7.047616e-05 -1.962232e-04 -1.431616e-04 -1.303003e-04
          -1.134215e-04 1.563494e-04 1.356716e-04 1.024108e-04 4.441525e-05 -2.251887e-05
          1.223237e-05 2.817805e-05 4.519126e-05 1.857138e-05 -4.506618e-05 -1.138919e-04
          -1.604358e-04 -3.057507e-04 -3.595092e-04 2.480795e-04 -1.082920e-04 -1.522520e-04
          -8.689086e-05 -1.151411e-04 -1.268599e-04 -9.336433e-05 -5.210689e-05 8.379194e-05
          -1.563461e-04 9.690376e-05 1.848854e-04 5.741460e-05 -6.316364e-05 -2.415968e-04
          6.230288e-05 -5.935880e-05 -2.381902e-05 -1.020459e-04 1.679283e-06 -3.093015e-05
          -1.688185e-05 1.079097e-04 -2.048741e-04 -5.569283e-04 1.182993e-04 2.982015e-04
          2.809310e-04 3.134160e-04 8.182372e-05 1.027574e-04 -4.595732e-05 -7.315981e-05
          -7.986607e-05 -5.187341e-05 8.291779e-05 1.526479e-04 2.619006e-04 3.484414e-04
          -6.512004e-05 -3.913434e-04 -4.480483e-04 -3.919277e-04 -2.528461e-04 -9.453111e-05
          2.217265e-05 3.572259e-04 5.554831e-04 -5.552103e-04 2.453747e-04 2.558758e-04
          8.971133e-05 1.413588e-04 1.626290e-04 9.052013e-05 3.795339e-06 -2.562946e-04
          -3.282660e-05 -3.114688e-05 -3.062623e-05 -3.132648e-05 -3.161363e-05 -3.051293e-05
          -2.102272e-05 -7.068357e-06 -1.288643e-05 -2.334654e-05 -2.472708e-05 -2.246167e-05
          -9.188851e-06 -1.020496e-06 -1.617256e-06 -2.623552e-06 1.528453e-05 3.044905e-05
          3.159885e-05 3.124545e-05 2.382156e-05 1.250417e-06 4.487329e-08 9.658367e-08
          1.246789e-06 2.722856e-05 3.186923e-05 3.247385e-05 3.235984e-05 3.059421e-05
          1.359882e-05 -8.277746e-07 -2.008668e-06 -1.906584e-06 -1.637412e-06 -1.026502e-06
          4.546328e-07 3.756007e-06 8.036486e-06 4.418300e-06 -9.162723e-06 -2.254987e-05
          -2.585212e-05 -2.600982e-05 -2.571231e-05 -2.586690e-05 -2.594861e-05 -2.293691e-05
          7.369833e-05 8.891997e-05 9.408102e-05 8.786356e-05 8.125616e-05 6.992868e-05
          5.837947e-05 -2.292837e-05 -2.362328e-05 -1.730836e-05 -8.663205e-06 -3.067356e-06
          4.417493e-05 8.387928e-05 7.033550e-05 4.627679e-05 1.079464e-05 -5.749934e-05
          -6.622334e-05 -6.344925e-05 -4.683909e-05 8.129392e-05 8.183708e-05 8.032189e-05
          7.307105e-05 -6.451923e-05 -7.743840e-05 -7.255251e-05 -6.289718e-05 -4.446256e-05
          9.371446e-06 5.765900e-05 5.928082e-05 6.248017e-05 6.946792e-05 7.613144e-05
          7.959131e-05 9.348625e-05 8.500913e-05 -2.841730e-05 -8.460745e-06 1.140248e-06
          -4.519432e-06 1.923411e-07 2.655725e-06 -1.173715e-06 -6.289811e-06 -2.560819e-05
          1.759178e-04 1.768102e-04 1.776643e-04 1.795714e-04 1.793360e-04 1.742580e-04
          1.036344e-04 -5.739542e-05 -6.615548e-05 -4.681935e-05 -4.206420e-05 -3.111398e-05
          3.799151e-05 8.745310e-05 9.605494e-05 9.254221e-05 -3.081964e-05 -1.617058e-04
          -1.747445e-04 -1.732329e-04 -1.251330e-04 8.259965e-05 9.683472e-05 9.681819e-05
          8.557791e-05 -1.430448e-04 -1.766049e-04 -1.752329e-04 -1.693903e-04 -1.471224e-04
          -1.903568e-05 9.226524e-05 1.007002e-04 1.006907e-04 9.992376e-05 9.832521e-05
          9.448950e-05 8.380340e-05 4.990767e-05 -2.920055e-05 -6.171762e-05 -4.610043e-05
          -4.165272e-05 -3.952224e-05 -3.781579e-05 -3.745047e-05 -3.764632e-05 -4.635114e-05
          1.809103e-04 1.627316e-04 1.566937e-04 1.678672e-04 1.767268e-04 1.850666e-04
          9.930319e-05 -3.733359e-05 -4.336428e-05 -1.436198e-05 -1.666321e-05 -5.200426e-06
          5.166896e-05 8.462501e-05 1.148270e-04 1.364759e-04 -3.521868e-05 -1.768422e-04
          -1.882469e-04 -1.887963e-04 -1.235517e-04 7.951901e-05 1.040982e-04 1.060075e-04
          9.548388e-05 -1.319773e-04 -1.752140e-04 -1.793292e-04 -1.817947e-04 -1.665118e-04
          -9.411522e-06 1.243606e-04 1.366792e-04 1.326530e-04 1.216282e-04 1.077772e-04
          9.470504e-05 5.955284e-05 1.209575e-05 1.995967e-05 -6.204390e-05 -4.089044e-05