<?xml version="1.0"?>
<VTKFile type="RectilinearGrid" version="0.1" byte_order="LittleEndian">
  <RectilinearGrid WholeExtent="0 47 0 47 0 47">
    <Piece Extent="0 47 0 47 0 47">
      <PointData Scalars="concentration">
        <DataArray type="Float32" Name="concentration" NumberOfComponents="1" format="ascii">
          1.468813e-04 1.760162e-04 1.861529e-04 1.733741e-04 1.601289e-04 1.352258e-04
          1.119351e-04 -3.824945e-05 -3.438463e-05 -1.768082e-05 -1.211489e-07 4.567651e-06
          6.020342e-05 1.137875e-04 8.456391e-05 3.960597e-05 -6.888343e-06 -1.159207e-04
          -1.305621e-04 -1.250284e-04 -1.018801e-04 1.076008e-04 1.042146e-04 1.010747e-04
          8.928381e-05 -1.358455e-04 -1.543306e-04 -1.456242e-04 -1.274828e-04 -9.609674e-05
          -1.479180e-05 5.904708e-05 6.052524e-05 6.713184e-05 8.216534e-05 9.753077e-05
          1.056489e-04 1.333951e-04 1.231269e-04 -7.628259e-05 -4.652264e-06 2.197571e-05
          1.061370e-05 1.901420e-05 2.292310e-05 1.486208e-05 4.676950e-06 -3.539885e-05
          1.302785e-04 1.581252e-04 1.678870e-04 1.557393e-04 1.434542e-04 1.207663e-04
          1.010487e-04 -3.933357e-05 -3.830458e-05 -2.596464e-05 -9.938309e-06 -3.579740e-06
          5.990875e-05 1.174285e-04 9.039041e-05 4.749044e-05 2.891833e-06 -1.014860e-04
          -1.155690e-04 -1.104141e-04 -8.838489e-05 1.124497e-04 1.099281e-04 1.069531e-04
          9.568214e-05 -1.197226e-04 -1.373483e-04 -1.289752e-04 -1.117574e-04 -8.169315e-05
          -3.859270e-06 6.678091e-05 6.820403e-05 7.443852e-05 8.838361e-05 1.024818e-04
          1.101653e-04 1.368247e-04 1.268045e-04 -6.653182e-05 -9.333455e-06 1.076005e-05
          -6.173612e-07 7.426668e-06 1.130986e-05 3.802164e-06 -5.757270e-06 -4.222006e-05
          4.039390e-05 2.591322e-04 3.346928e-04 2.269403e-04 1.243410e-04 -3.212240e-05
          1.774724e-04 -6.537924e-05 -3.025035e-05 -6.523418e-05 3.129651e-05 1.548248e-05
          1.050238e-04 2.679279e-04 5.117400e-06 -3.077173e-04 1.135018e-04 1.005632e-04
          6.933652e-05 9.990238e-05 -3.377377e-05 2.571236e-04 1.473334e-04 1.237870e-04
          1.035048e-04 -1.722162e-04 -1.006695e-04 -3.973666e-05 6.167810e-05 1.643930e-04
          -2.413138e-05 -1.607566e-04 -1.996569e-04 -1.509422e-04 -3.299262e-05 9.740434e-05
          1.895879e-04 4.666552e-04 5.959428e-04 -4.595867e-04 1.953547e-04 2.374354e-04
          1.062450e-04 1.549876e-04 1.754632e-04 1.137359e-04 3.850382e-05 -1.981604e-04
          6.920544e-05 -1.008866e-04 -1.601754e-04 -7.388685e-05 8.904286e-06 1.334888e-04
          -6.133619e-05 2.926732e-05 -5.049357e-06 3.407161e-05 -3.842696e-05 -8.253052e-06
          2.839756e-05 -2.712141e-05 1.871350e-04 4.236871e-04 -3.810632e-05 -1.673046e-04
          -1.567446e-04 -1.790953e-04 -2.069563e-05 -1.999486e-05 8.366953e-05 1.022705e-04
          1.061019e-04 7.308113e-05 -1.954575e-05 -6.631805e-05 -1.397196e-04 -1.965274e-04
          8.956399e-05 3.156327e-04 3.540825e-04 3.160501e-04 2.206830e-04 1.114257e-04
          3.218519e-05 -1.929215e-04 -3.289359e-04 4.022928e-04 -1.843346e-04 -2.120290e-04
          -1.016367e-04 -1.362182e-04 -1.497682e-04 -1.005342e-04 -4.132506e-05 1.406615e-04
          -6.508145e-06 1.480218e-04 2.009433e-04 1.251678e-04 5.375386e-05 -5.307035e-05
          1.111080e-04 -3.551664e-05 -1.206306e-05 -4.234415e-05 2.455513e-05 1.730703e-05
          1.023870e-04 2.306963e-04 4.592335e-05 -1.765756e-04 1.170562e-04 1.045786e-04
          8.219763e-05 1.036877e-04 1.136558e-05 2.249662e-04 1.493017e-04 1.328525e-04
          1.181518e-04 -8.412384e-05 -3.493498e-05 7.879559e-06 7.955854e-05 1.526567e-04
          2.367860e-05 -6.969101e-05 -9.718888e-05 -6.290552e-05 1.911746e-05 1.085953e-04
          1.723961e-04 3.689478e-04 4.596497e-04 -2.932080e-04 1.448598e-04 1.666666e-04
          7.484186e-05 1.098097e-04 1.246677e-04 8.150197e-05 2.876509e-05 -1.349087e-04
          6.784247e-06 1.637336e-04 2.174261e-04 1.404469e-04 6.760563e-05 -4.195450e-05
          1.208385e-04 -3.498693e-05 -9.050443e-06 -3.610725e-05 3.261605e-05 2.395977e-05
          1.033942e-04 2.296144e-04 4.143376e-05 -1.846982e-04 1.101344e-04 9.393077e-05
          7.090123e-05 9.289641e-05 6.131387e-07 2.228820e-04 1.458153e-04 1.290832e-04
          1.138423e-04 -9.785640e-05 -4.888348e-05 -5.428759e-06 6.765275e-05 1.424363e-04
          1.498546e-05 -7.677401e-05 -1.044501e-04 -6.956269e-05 1.405831e-05 1.053784e-04
          1.701220e-04 3.692895e-04 4.606394e-04 -3.037632e-04 1.499201e-04 1.771801e-04
          8.450230e-05 1.200689e-04 1.350954e-04 9.108799e-05 3.736560e-05 -1.306668e-04
          1.353536e-04 -8.599443e-05 -1.629776e-04 -5.105663e-05 5.504622e-05 2.123598e-04
          -5.811185e-05 3.505292e-05 -3.632841e-06 5.817571e-05 -3.382563e-05 -1.025452e-06
          1.076251e-05 -8.338044e-05 1.931521e-04 5.020631e-04 -9.546515e-05 -2.603893e-04
          -2.462239e-04 -2.749311e-04 -7.032424e-05 -7.724627e-05 5.480444e-05 7.881528e-05
          8.410321e-05 4.787314e-05 -7.160510e-05 -1.325158e-04 -2.277833e-04 -3.023070e-04
          6.634317e-05 3.577008e-04 4.077974e-04 3.585471e-04 2.361637e-04 9.708432e-05
          -4.838416e-06 -2.987517e-04 -4.748249e-04 4.876414e-04 -2.361104e-04 -2.561822e-04
          -1.123252e-04 -1.577275e-04 -1.759354e-04 -1.125490e-04 -3.615385e-05 1.946320e-04
          8.977478e-05 4.114517e-04 5.228179e-04 3.635485e-04 2.104126e-04 -2.511409e-05
          2.708066e-04 -9.556687e-05 -3.647300e-05 -7.851134e-05 6.544049e-05 3.247843e-05
          1.089275e-04 3.137568e-04 -7.675496e-05 -5.345477e-04 1.107611e-04 1.183455e-04
          7.513382e-05 1.202593e-04 -8.694515e-05 2.947998e-04 1.273463e-04 9.242966e-05
          6.489381e-05 -2.922805e-04 -1.797366e-04 -9.027684e-05 5.811646e-05 2.047401e-04
          -9.953189e-05 -3.233962e-04 -3.818905e-04 -3.099437e-04 -1.341161e-04 6.215375e-05
          2.002329e-04 6.082585e-04 8.052628e-04 -7.206490e-04 2.967743e-04 3.745289e-04
          1.803928e-04 2.511442e-04 2.802291e-04 1.885909e-04 7.712448e-05 -2.768857e-04
          1.680529e-04 1.368936e-04 1.262732e-04 1.431417e-04 1.575751e-04 1.737313e-04
          8.092130e-05 -2.421429e-05 -2.785767e-05 4.959821e-06 -2.738259e-06 4.797226e-06
          2.749661e-05 3.169544e-05 7.476637e-05 1.160184e-04 -5.709092e-05 -1.735129e-04
          -1.806306e-04 -1.831945e-04 -1.189549e-04 2.684813e-05 5.401146e-05 5.719998e-05
          5.004829e-05 -1.181278e-04 -1.590012e-04 -1.669649e-04 -1.763629e-04 -1.714182e-04
          -2.734090e-05 9.356318e-05 1.065644e-04 9.991343e-05 8.292952e-05 6.320657e-05
          4.590558e-05 -4.148550e-06 -5.284994e-05 3.598764e-05 -6.010259e-05 -3.670494e-05
          -1.119070e-05 -1.607631e-05 -1.791331e-05 -9.108506e-06 1.113036e-06 2.305858e-05
          1.217039e-04 1.500202e-04 1.598145e-04 1.466663e-04 1.329417e-04 1.079338e-04
          9.412091e-05 -2.597848e-05 -1.795478e-05 -1.790431e-06 1.515122e-05 1.462755e-05
          3.821671e-05 7.011800e-05 3.875369e-05 -3.944332e-06 -1.908146e-05 -9.358272e-05
          -1.047240e-04 -9.954782e-05 -8.873515e-05 6.395225e-05 5.621485e-05 5.298986e-05
          4.415604e-05 -1.195264e-04 -1.292063e-04 -1.208152e-04 -1.045800e-04 -7.923277e-05
          -3.137147e-05 1.350772e-05 1.307595e-05 1.965654e-05 3.521837e-05 5.190819e-05
          6.134404e-05 9.054199e-05 8.878969e-05 -8.327265e-05 1.060586e-05 3.941837e-05
          2.713445e-05 3.474653e-05 3.790428e-05 2.978069e-05 1.951712e-05 -2.015028e-05
          5.850058e-05 9.332733e-05 1.050469e-04 8.814992e-05 7.155477e-05 4.445875e-05
          6.301891e-05 -8.285759e-06 2.692957e-06 9.820972e-06 2.780601e-05 2.467473e-05
          3.668266e-05 6.261787e-05 2.094130e-05 -3.073382e-05 4.322533e-06 -3.090591e-05
          -3.906809e-05 -3.354659e-05 -4.118822e-05 5.821465e-05 4.331736e-05 3.944350e-05
          3.331582e-05 -6.996874e-05 -6.750561e-05 -5.750996e-05 -4.001812e-05 -1.820691e-05
          -1.483630e-05 -7.788342e-06 -1.199494e-05 -4.006918e-06 1.504633e-05 3.550123e-05
          4.864753e-05 8.994625e-05 1.024619e-04 -7.986629e-05 3.634841e-05 5.878001e-05
          4.117135e-05 4.975864e-05 5.315438e-05 4.320581e-05 3.079951e-05 -1.235379e-05
          1.008785e-05 1.283395e-05 1.301429e-05 1.182557e-05 1.080667e-05 9.186641e-06
          1.655496e-05 1.872725e-05 2.659306e-05 3.465882e-05 3.747177e-05 3.666019e-05
          3.462700e-05 3.508142e-05 3.071992e-05 2.406471e-05 1.198120e-05 -5.595311e-06
          -7.566061e-06 -6.783908e-06 9.384531e-08 3.365724e-05 3.377605e-05 3.347087e-05
          3.157747e-05 -5.086841e-06 -9.530563e-06 -8.643588e-06 -6.755664e-06 -2.675804e-06
          1.341588e-05 2.733345e-05 2.761695e-05 2.839835e-05 2.972637e-05 2.984430e-05
          2.913615e-05 3.192647e-05 2.992233e-05 9.543300e-06 2.452689e-05 3.662461e-05
          3.858268e-05 4.008688e-05 4.043617e-05 3.965774e-05 3.845339e-05 3.234289e-05
          -1.949084e-05 -3.264026e-05 -3.825361e-05 -3.161586e-05 -2.473634e-05 -1.328449e-05
          -8.588368e-06 3.488919e-05 4.150467e-05 4.957473e-05 4.476802e-05 4.538863e-05
          3.816867e-05 2.704524e-05 4.107230e-05 5.645545e-05 2.104170e-05 1.229179e-05
          1.343024e-05 1.185190e-05 2.602097e-05 2.726489e-05 3.497485e-05 3.648532e-05
          3.668622e-05 3.289727e-05 2.494238e-05 2.126731e-05 1.543574e-05 1.069147e-05
          3.312370e-05 5.044465e-05 5.287596e-05 5.005427e-05 4.247025e-05 3.215164e-05
          2.434475e-05 8.275168e-06 -8.208918e-07 5.863656e-05 2.114471e-05 2.755728e-05
          3.947870e-05 3.753061e-05 3.641340e-05 4.019440e-05 4.461513e-05 5.719431e-05
          -4.070259e-05 1.375688e-05 3.176462e-05 4.315887e-06 -2.135999e-05 -5.903013e-05
          2.021872e-05 1.878746e-05 3.715317e-05 2.921762e-05 5.317049e-05 4.382850e-05
          3.394094e-05 5.269171e-05 -1.729819e-05 -9.628444e-05 4.145844e-05 7.313459e-05
          6.896956e-05 7.633176e-05 3.158005e-05 5.026225e-05 1.841049e-05 1.256776e-05
          1.033229e-05 4.873917e-07 2.652544e-05 4.151767e-05 6.528950e-05 8.494961e-05
          4.453231e-06 -5.877495e-05 -7.096295e-05 -5.871769e-05 -2.877130e-05 3.684993e-06
          2.686162e-05 9.952017e-05 1.415879e-04 -9.761399e-05 8.832751e-05 1.040227e-04
          7.237544e-05 8.436738e-05 8.888596e-05 7.322377e-05 5.423971e-05 -5.049321e-06
          -5.191957e-06 -7.433279e-05 -9.862951e-05 -6.484627e-05 -3.267015e-05 1.560249e-05
          -4.763672e-05 3.693685e-05 3.340511e-05 5.216873e-05 2.319221e-05 2.465142e-05
          -2.360761e-05 -8.759884e-05 -6.850347e-06 9.071499e-05 -4.216575e-05 -3.776237e-05
          -2.772479e-05 -3.717477e-05 6.134832e-06 -8.573213e-05 -5.218014e-05 -4.479986e-05
          -3.844695e-05 4.774029e-05 2.472263e-05 5.611640e-06 -2.643420e-05 -5.905658e-05
          7.163703e-07 4.406539e-05 5.614432e-05 4.092506e-05 4.316169e-06 -3.660275e-05
          -6.622196e-05 -1.535174e-04 -1.936068e-04 1.449765e-04 -4.104105e-05 -4.258584e-05
          9.284298e-07 -1.425323e-05 -2.095684e-05 -1.787246e-06 2.161563e-05 9.288077e-05
          -3.509129e-05 6.473083e-05 9.922788e-05 4.835177e-05 -3.411598e-07 -7.425682e-05
          4.241604e-05 -5.181839e-06 2.041943e-05 3.071750e-06 4.673975e-05 2.663437e-05
          -8.503620e-06 1.554199e-05 -1.118254e-04 -2.517176e-04 1.872878e-05 9.393937e-05
          8.776219e-05 1.010181e-04 9.201385e-06 1.027834e-05 -5.125523e-05 -6.222433e-05
          -6.458587e-05 -4.749724e-05 6.331225e-06 3.396136e-05 7.705347e-05 1.104191e-04
          -5.651997e-05 -1.883542e-04 -2.110360e-04 -1.885796e-04 -1.321426e-04 -6.787248e-05
          -2.177261e-05 1.105213e-04 1.907015e-04 -2.355550e-04 1.233307e-04 1.480669e-04
          8.482779e-05 1.053157e-04 1.131348e-04 8.399386e-05 4.896219e-05 -6.038795e-05
          -1.447950e-05 -7.117097e-05 -9.082400e-05 -6.330472e-05 -3.718158e-05 2.221688e-06
          -4.990472e-05 2.278788e-05 1.686978e-05 2.769724e-05 3.034286e-06 3.602604e-06
          -4.032395e-05 -9.606482e-05 -2.971245e-05 5.185023e-05 -4.180907e-05 -2.253585e-05
          -1.287660e-05 -2.097913e-05 7.818996e-06 -9.373507e-05 -6.787721e-05 -6.185122e-05
          -5.522070e-05 4.420074e-05 2.969200e-05 1.410397e-05 -1.281424e-05 -4.215043e-05
          -9.239256e-06 1.261981e-05 2.170384e-05 9.152462e-06 -2.057733e-05 -5.305364e-05
          -7.605929e-05 -1.468590e-04 -1.761332e-04 1.097550e-04 -4.168458e-05 -4.860329e-05
          -1.501151e-05 -2.803647e-05 -3.373720e-05 -1.800621e-05 1.199061e-06 6.127358e-05
          2.134164e-06 -4.280263e-05 -5.870001e-05 -3.667655e-05 -1.590615e-05 1.535135e-05
          -2.808599e-05 2.235536e-05 1.994120e-05 3.283679e-05 1.411223e-05 1.512679e-05
          -1.628420e-05 -5.787666e-05 -5.018818e-06 5.844185e-05 -3.024206e-05 -2.958235e-05
          -2.335393e-05 -2.951300e-05 -3.355558e-07 -5.671566e-05 -3.475320e-05 -2.999191e-05
          -2.604147e-05 2.611571e-05 1.049668e-05 -1.802594e-06 -2.254835e-05 -4.342172e-05
          -2.290123e-06 2.783125e-05 3.590203e-05 2.600648e-05 2.256451e-06 -2.426967e-05
          -4.346549e-05 -1.006085e-04 -1.273362e-04 9.191058e-05 -2.814949e-05 -2.845477e-05
          -1.693538e-07 -9.985273e-06 -1.437213e-05 -1.817984e-06 1.326980e-05 5.933452e-05
          -4.714895e-05 2.162509e-04 3.068414e-04 1.750657e-04 4.931734e-05 -1.400971e-04
          1.505771e-04 -3.967762e-05 1.449189e-05 -3.354171e-05 8.117357e-05 4.673842e-05
          6.244802e-05 1.968058e-04 -1.290613e-04 -5.023440e-04 1.118582e-04 2.081962e-04
          1.816735e-04 2.174237e-04 1.457285e-05 1.846830e-04 3.763268e-05 9.053309e-06
          -5.918863e-06 -1.415795e-04 -2.651959e-05 4.639428e-05 1.640455e-04 2.690786e-04
          -6.881333e-05 -3.289499e-04 -3.826132e-04 -3.237278e-04 -1.789478e-04 -1.689059e-05
          9.910469e-05 4.411796e-04 6.260554e-04 -5.714221e-04 2.849799e-04 3.376649e-04
          1.751840e-04 2.317816e-04 2.544712e-04 1.792225e-04 8.784234e-05 -1.965417e-04
          4.080283e-05 -8.452554e-05 -1.284333e-04 -6.598393e-05 -6.995461e-06 8.123004e-05
          -5.616312e-05 3.995362e-05 2.512222e-05 6.008547e-05 7.816858e-06 1.878558e-05
          -1.995238e-05 -1.034616e-04 4.865716e-05 2.247189e-04 -6.852249e-05 -1.146630e-04
          -1.019818e-04 -1.186658e-04 -2.006110e-05 -1.000770e-04 -3.191903e-05 -1.848175e-05
          -1.151679e-05 5.046980e-05 -5.126712e-06 -3.963109e-05 -9.555260e-05 -1.456448e-04
          1.643866e-05 1.412402e-04 1.666836e-04 1.389579e-04 7.107432e-05 -5.360848e-06
          -6.100053e-05 -2.239307e-04 -3.111793e-04 2.665411e-04 -1.076577e-04 -1.145457e-04
          -3.448320e-05 -6.101379e-05 -7.228302e-05 -3.680190e-05 5.932437e-06 1.357300e-04
          5.962282e-05 4.156517e-05 3.473275e-05 4.360973e-05 5.067917e-05 5.917792e-05
          2.577432e-05 1.786080e-05 2.731540e-05 4.999545e-05 4.601541e-05 4.112831e-05
          -2.048791e-07 -3.366456e-05 -1.451936e-05 9.721162e-06 -4.562264e-05 -6.542807e-05
          -6.470799e-05 -6.639210e-05 -4.580289e-05 -3.730178e-05 -2.866599e-05 -2.698895e-05
          -2.722982e-05 -4.242410e-05 -5.422285e-05 -5.910942e-05 -6.657442e-05 -7.166729e-05
          -3.462471e-05 -4.759583e-06 -2.603002e-07 -3.882422e-06 -1.221845e-05 -2.164859e-05
          -3.011168e-05 -5.533955e-05 -7.062415e-05 1.638023e-05 4.957547e-06 2.884355e-05
          4.361626e-05 4.022795e-05 3.804778e-05 4.266043e-05 4.795451e-05 5.823117e-05
          7.161164e-05 1.198468e-04 1.359122e-04 1.116538e-04 8.654648e-05 4.559790e-05
          7.657212e-05 5.229373e-06 3.029111e-05 4.590454e-05 7.186985e-05 5.669713e-05
          1.102847e-05 6.782250e-06 -5.652723e-05 -1.260972e-04 -3.315741e-05 -3.534895e-05
          -4.187385e-05 -3.426664e-05 -6.236992e-05 -1.367492e-06 -2.978174e-05 -3.538655e-05
          -3.997451e-05 -1.005430e-04 -8.492543e-05 -7.152792e-05 -4.910998e-05 -2.660420e-05
          -6.814103e-05 -9.807635e-05 -1.066111e-04 -9.528654e-05 -6.675309e-05 -3.463403e-05
          -1.388644e-05 4.604501e-05 7.566718e-05 -1.393085e-04 7.602694e-05 1.198648e-04
          9.431282e-05 1.052069e-04 1.085918e-04 9.408772e-05 7.621034e-05 1.233269e-05
          1.277665e-04 -1.496646e-04 -2.462725e-04 -1.078511e-04 2.215045e-05 2.149963e-04
          -1.064744e-04 7.339226e-05 3.912194e-05 1.204724e-04 5.737297e-06 2.965784e-05
          -5.609839e-05 -2.397863e-04 9.754770e-05 4.882641e-04 -1.736707e-04 -2.895993e-04
          -2.627462e-04 -2.992392e-04 -7.697620e-05 -2.339684e-04 -8.213826e-05 -5.249490e-05
          -3.822684e-05 7.652881e-05 -4.935739e-05 -1.259889e-04 -2.492828e-04 -3.576581e-04
          1.412533e-05 3.018060e-04 3.591623e-04 2.978595e-04 1.479112e-04 -2.025411e-05
          -1.432610e-04 -5.056580e-04 -7.026413e-04 5.705792e-04 -2.529529e-04 -2.639871e-04
          -8.686248e-05 -1.456717e-04 -1.706500e-04 -9.227830e-05 2.365202e-06 2.873295e-04
          4.163715e-06 2.426899e-04 3.248295e-04 2.056581e-04 9.097689e-05 -8.340811e-05
          1.633301e-04 -4.020922e-05 1.244703e-05 -2.117236e-05 8.477829e-05 5.160455e-05
          5.616967e-05 1.730490e-04 -1.223837e-04 -4.606504e-04 7.704930e-05 1.450594e-04
          1.192837e-04 1.522737e-04 -2.412982e-05 1.594028e-04 2.714968e-05 1.084004e-06
          -1.416910e-05 -1.703968e-04 -7.091217e-05 -4.949899e-06 1.022471e-04 2.007006e-04
          -8.621919e-05 -3.052347e-04 -3.525509e-04 -2.990103e-04 -1.673371e-04 -1.976789e-05
          8.483717e-05 3.924874e-04 5.550793e-04 -5.349116e-04 2.568918e-04 3.172525e-04
          1.717417e-04 2.233136e-04 2.436889e-04 1.753607e-04 9.229680e-05 -1.700449e-04
          6.410243e-05 5.207580e-05 4.831912e-05 5.457045e-05 5.929222e-05 6.414526e-05
          2.421383e-05 -1.701978e-05 -1.966228e-05 -8.904272e-06 -1.225417e-05 -1.207753e-05
          -1.936009e-05 -2.820237e-05 -1.226123e-05 5.734397e-06 -4.225642e-05 -6.776372e-05
          -6.866107e-05 -6.988035e-05 -5.334435e-05 -3.018052e-05 -2.237819e-05 -2.129591e-05
          -2.234312e-05 -5.145137e-05 -6.165005e-05 -6.472124e-05 -6.930978e-05 -7.050565e-05
          -3.478981e-05 -4.997157e-06 -9.557185e-07 -3.504172e-06 -9.313624e-06 -1.499439e-05
          -1.996521e-05 -3.857979e-05 -5.285024e-05 -5.192152e-06 -2.952216e-05 -2.198262e-05
          -1.427915e-05 -1.685945e-05 -1.808815e-05 -1.475663e-05 -1.096776e-05 -2.441690e-06
          1.334563e-04 8.658651e-05 7.197302e-05 9.610398e-05 1.167966e-04 1.430823e-04
          2.798051e-05 -5.839334e-05 -7.910413e-05 -6.284299e-05 -8.118829e-05 -7.414429e-05
          -6.900742e-05 -8.515356e-05 -2.187486e-05 4.874265e-05 -9.829010e-05 -1.563799e-04
          -1.559852e-04 -1.620418e-04 -1.138949e-04 -8.627497e-05 -5.703598e-05 -5.225639e-05
          -5.269058e-05 -9.416026e-05 -1.236339e-04 -1.358413e-04 -1.550159e-04 -1.667906e-04
          -6.874044e-05 1.155247e-05 2.445476e-05 1.391189e-05 -1.050118e-05 -3.521433e-05
          -5.399067e-05 -1.214215e-04 -1.666721e-04 2.769029e-05 -1.164441e-04 -1.205979e-04
          -9.437674e-05 -1.051517e-04 -1.092992e-04 -9.590930e-05 -8.001708e-05 -3.428262e-05
          9.338517e-05 2.460063e-04 3.004198e-04 2.251733e-04 1.513030e-04 3.552742e-05
          1.372869e-04 -1.040029e-04 -9.127042e-05 -1.183611e-04 -5.114467e-05 -6.561272e-05
          -2.199720e-05 8.053816e-05 -1.003199e-04 -3.117765e-04 -1.584939e-06 4.625608e-06
          -1.599919e-05 4.846306e-06 -9.847099e-05 7.168823e-05 -8.127668e-06 -2.486127e-05
          -3.727596e-05 -1.954733e-04 -1.396962e-04 -9.671078e-05 -2.645930e-05 4.281426e-05
          -1.070011e-04 -2.166993e-04 -2.438487e-04 -2.100189e-04 -1.256336e-04 -2.851634e-05
          4.040579e-05 2.314410e-04 3.234380e-04 -3.996778e-04 7.874986e-05 1.031221e-04
          5.043600e-06 3.705943e-05 5.051956e-05 7.246561e-06 -4.557171e-05 -2.118019e-04
          1.492836e-04 3.770917e-05 4.150974e-07 5.737329e-05 1.095388e-04 1.835601e-04
          -1.370522e-06 -4.359387e-05 -7.675830e-05 -4.669747e-05 -9.287165e-05 -7.499144e-05
          -5.970356e-05 -9.967841e-05 4.462656e-05 2.053566e-04 -1.104483e-04 -2.103665e-04
          -2.052140e-04 -2.198944e-04 -1.141573e-04 -9.781527e-05 -2.994325e-05 -1.804624e-05
          -1.639707e-05 -5.765419e-05 -1.206100e-04 -1.506683e-04 -1.980215e-04 -2.326760e-04
          -3.295856e-05 1.271527e-04 1.541836e-04 1.291359e-04 6.851013e-05 2.263924e-06
          -4.647949e-05 -1.988987e-04 -2.939879e-04 1.829597e-04 -1.826594e-04 -1.982163e-04
          -1.301630e-04 -1.542199e-04 -1.636258e-04 -1.315100e-04 -9.307967e-05 2.237508e-05
          1.156379e-04 2.642952e-04 3.169242e-04 2.438250e-04 1.718848e-04 5.837562e-05
          1.534903e-04 -9.300216e-05 -7.565205e-05 -9.372220e-05 -2.657536e-05 -4.096133e-05
          8.813697e-07 1.011833e-04 -7.538091e-05 -2.831784e-04 -1.824769e-06 -1.707561e-05
          -3.912637e-05 -1.829890e-05 -1.098329e-04 9.091942e-05 1.493195e-05 -1.378338e-06
          -1.538471e-05 -2.082908e-04 -1.598892e-04 -1.180716e-04 -4.868661e-05 2.227891e-05
          -1.018548e-04 -1.901041e-04 -2.153738e-04 -1.822629e-04 -1.001069e-04 -6.312676e-06
          5.937082e-05 2.440412e-04 3.287336e-04 -3.850751e-04 8.700498e-05 1.214103e-04
          2.864986e-05 6.053566e-05 7.380964e-05 3.154046e-05 -2.008636e-05 -1.853821e-04
          1.279567e-04 6.805648e-05 4.809222e-05 7.902357e-05 1.067684e-04 1.444807e-04
          2.766033e-05 -3.230730e-05 -4.921116e-05 -2.510253e-05 -4.817096e-05 -3.798523e-05
          -2.502428e-05 -4.215825e-05 3.648215e-05 1.221304e-04 -7.472251e-05 -1.569194e-04
          -1.569350e-04 -1.643327e-04 -9.670065e-05 -4.307592e-05 -4.121354e-06 2.191335e-06
          6.516269e-07 -7.140620e-05 -1.125606e-04 -1.285358e-04 -1.527363e-04 -1.666010e-04
          -3.112414e-05 7.932662e-05 9.568742e-05 8.233256e-05 4.992246e-05 1.442068e-05
          -1.261779e-05 -9.716516e-05 -1.555380e-04 8.673334e-05 -1.059516e-04 -1.054308e-04
          -6.723213e-05 -7.968381e-05 -8.455651e-05 -6.736127e-05 -4.692363e-05 1.152138e-05
          1.598872e-05 8.272105e-05 1.057328e-04 7.336243e-05 4.253910e-05 -4.125925e-06
          5.688889e-05 -2.702547e-05 -1.982762e-05 -3.263638e-05 -3.620347e-06 -5.239857e-06
          4.075299e-05 1.024845e-04 2.430732e-05 -7.135190e-05 4.438155e-05 2.728129e-05
          1.640537e-05 2.567645e-05 -1.023237e-05 9.982037e-05 6.862661e-05 6.152681e-05
          5.425706e-05 -5.270055e-05 -3.436079e-05 -1.567539e-05 1.570524e-05 4.920624e-05
          4.766660e-06 -2.560968e-05 -3.668712e-05 -2.197047e-05 1.336967e-05 5.204241e-05
          7.950878e-05 1.630424e-04 1.988420e-04 -1.333680e-04 4.956032e-05 5.787761e-05
          1.805954e-05 3.316075e-05 3.965652e-05 2.119204e-05 -1.529321e-06 -7.227228e-05
          -9.557676e-05 -3.526572e-05 -1.545480e-05 -4.484194e-05 -7.072616e-05 -1.052916e-04
          -4.481000e-07 1.473829e-05 2.300210e-05 -2.141178e-06 2.095057e-05 2.285003e-05
          8.131484e-05 1.453959e-04 7.307546e-05 -1.599622e-05 1.152145e-04 1.286795e-04
          1.217980e-04 1.296068e-04 8.818154e-05 1.473239e-04 1.184517e-04 1.123948e-04
          1.080783e-04 5.822883e-05 8.118695e-05 9.757548e-05 1.245716e-04 1.499631e-04
          8.287218e-05 3.128220e-05 1.886433e-05 3.196700e-05 6.206759e-05 9.285847e-05
          1.162158e-04 1.966167e-04 2.372953e-04 -5.522159e-05 7.945096e-05 7.118610e-05
          3.597542e-05 5.006993e-05 5.629135e-05 4.004771e-05 2.021043e-05 -3.613260e-05
          -1.326917e-04 -1.704937e-04 -1.847172e-04 -1.657382e-04 -1.447630e-04 -1.070388e-04
          -8.682410e-05 5.057281e-05 4.229503e-05 2.990994e-05 9.057700e-06 2.071416e-05
          5.382362e-05 5.394542e-05 1.000015e-04 1.500377e-04 8.760241e-05 1.020688e-04
          1.087281e-04 1.028037e-04 1.236427e-04 6.180754e-05 8.365008e-05 8.824749e-05
          9.256442e-05 1.567361e-04 1.461408e-04 1.351788e-04 1.167984e-04 9.692896e-05
          1.195635e-04 1.334402e-04 1.385894e-04 1.297975e-04 1.062135e-04 7.688010e-05
          5.795278e-05 1.452962e-05 -3.777044e-06 1.706389e-04 -3.969774e-06 -3.546422e-05
          -1.115049e-05 -1.854342e-05 -2.113668e-05 -9.524809e-06 4.632074e-06 5.634332e-05
          -1.525143e-04 -1.491316e-04 -1.486866e-04 -1.508700e-04 -1.501012e-04 -1.429499e-04
          -7.679204e-05 3.835516e-05 3.667069e-05 1.258758e-05 8.883429e-06 1.277515e-05
          3.391450e-05 4.532498e-05 3.942932e-05 3.307180e-05 9.078642e-05 1.448586e-04
          1.497071e-04 1.490666e-04 1.278165e-04 5.176669e-05 4.754369e-05 4.758307e-05
          5.172083e-05 1.391899e-04 1.535200e-04 1.539355e-04 1.529747e-04 1.455406e-04
          9.020788e-05 4.194120e-05 3.737591e-05 3.781148e-05 3.753764e-05 3.546039e-05
          3.651679e-05 4.804328e-05 6.459589e-05 6.615718e-05 3.543132e-05 7.958088e-06
          4.255384e-06 4.902651e-06 5.524603e-06 5.131742e-06 4.940622e-06 1.321790e-05
          -1.648593e-04 -2.721927e-05 2.003215e-05 -4.928639e-05 -1.127846e-04 -2.031251e-04
          8.655826e-07 -7.548596e-08 2.044170e-05 -3.145183e-05 2.279243e-05 1.020484e-05
          4.593792e-05 1.302648e-04 -4.036387e-05 -2.353587e-04 1.358665e-04 2.388315e-04
          2.300642e-04 2.475522e-04 1.215126e-04 1.307732e-04 5.179201e-05 3.725559e-05
          3.386413e-05 5.381730e-05 1.273842e-04 1.649594e-04 2.240485e-04 2.702707e-04
          4.196790e-05 -1.392580e-04 -1.709542e-04 -1.405909e-04 -6.697275e-05 1.453883e-05
          7.561817e-05 2.608887e-04 3.710258e-04 -2.394305e-04 1.606798e-04 1.545943e-04
          6.617021e-05 9.521936e-05 1.074693e-04 6.870541e-05 2.210048e-05 -1.135228e-04
          -7.601966e-05 -1.946946e-04 -2.359193e-04 -1.769433e-04 -1.188914e-04 -2.779670e-05
          -1.193955e-04 4.175057e-05 1.581082e-05 2.225706e-05 -3.275154e-05 -1.513791e-05
          -1.269839e-05 -6.956625e-05 7.591482e-05 2.434383e-04 2.586134e-06 -2.977458e-06
          1.268191e-05 -4.184470e-06 7.357863e-05 -5.992494e-05 4.193107e-06 1.734291e-05
          2.723031e-05 1.527923e-04 1.102421e-04 7.704480e-05 2.241022e-05 -3.124685e-05
          8.421281e-05 1.691435e-04 1.906425e-04 1.638895e-04 9.748754e-05 2.226192e-05
          -2.994123e-05 -1.793301e-04 -2.525565e-04 3.005973e-04 -1.085982e-04 -1.503249e-04
          -7.853836e-05 -1.042604e-04 -1.143196e-04 -8.015193e-05 -3.838014e-05 9.730997e-05
          -1.104740e-04 1.417996e-04 2.290068e-04 1.032140e-04 -1.512070e-05 -1.906420e-04
          1.074747e-04 -4.596875e-05 -6.495563e-06 -7.206270e-05 3.385516e-05 9.925514e-06
          7.635709e-05 2.364855e-04 -7.231875e-05 -4.297309e-04 1.629632e-04 2.595212e-04
          2.344771e-04 2.681665e-04 7.097015e-05 2.295532e-04 9.172191e-05 6.474924e-05
          5.083881e-05 -7.120419e-05 4.037485e-05 1.097873e-04 2.222235e-04 3.222193e-04
          -5.940949e-06 -2.593342e-04 -3.111782e-04 -2.552359e-04 -1.188316e-04 3.316785e-05
          1.435944e-04 4.730237e-04 6.507148e-04 -5.079455e-04 2.541842e-04 2.765144e-04
          1.186268e-04 1.727755e-04 1.954036e-04 1.239648e-04 3.769355e-05 -2.248831e-04
          -9.084977e-05 -8.802224e-05 -8.781285e-05 -8.821071e-05 -8.597862e-05 -7.788793e-05
          -3.606117e-05 1.680457e-05 8.982566e-06 -9.868481e-06 -1.261052e-05 2.717898e-07
          7.530000e-05 1.227534e-04 1.232206e-04 1.154468e-04 1.045696e-04 8.842724e-05
          8.644458e-05 8.639436e-05 9.206959e-05 1.283813e-04 1.335221e-04 1.338253e-04
          1.320855e-04 9.696684e-05 9.267026e-05 9.310274e-05 9.484305e-05 9.874056e-05
          1.137396e-04 1.260548e-04 1.258605e-04 1.259705e-04 1.237540e-04 1.181418e-04
          1.157025e-04 1.210836e-04 1.190490e-04 7.866217e-05 7.224212e-06 -1.951772e-05
          -1.958379e-05 -1.771903e-05 -1.603652e-05 -1.566746e-05 -1.521757e-05 -7.234305e-06
          -1.078234e-04 -8.808503e-05 -8.176506e-05 -9.027660e-05 -9.554550e-05 -9.786733e-05
          -3.831027e-05 -1.604253e-06 -1.426911e-05 -4.535500e-05 -4.257009e-05 -2.780318e-05
          7.096054e-05 1.409936e-04 1.233081e-04 9.277202e-05 1.225898e-04 1.137666e-04
          1.099816e-04 1.117381e-04 1.029982e-04 1.479413e-04 1.449657e-04 1.435263e-04
          1.410543e-04 1.005997e-04 1.042354e-04 1.095830e-04 1.186690e-04 1.291277e-04
          1.207582e-04 1.151101e-04 1.114974e-04 1.151192e-04 1.215121e-04 1.257346e-04
          1.311942e-04 1.584433e-04 1.677939e-04 4.564323e-05 4.614533e-06 -3.263097e-05
          -4.522708e-05 -4.002120e-05 -3.667707e-05 -4.064208e-05 -4.567968e-05 -5.156946e-05
          -4.968619e-05 -4.531771e-05 -4.371312e-05 -4.502152e-05 -4.481922e-05 -4.173980e-05
          -2.418568e-05 -1.459124e-05 -2.766475e-05 -4.661056e-05 -4.844725e-05 -3.802491e-05
          2.406337e-05 6.451219e-05 6.444918e-05 5.800705e-05 5.782923e-05 4.870470e-05
          4.694938e-05 4.681074e-05 4.686267e-05 6.911961e-05 7.170624e-05 7.157567e-05
          7.052857e-05 4.969119e-05 4.874164e-05 5.018526e-05 5.219336e-05 5.573183e-05
          6.067369e-05 6.534245e-05 6.491112e-05 6.537149e-05 6.530607e-05 6.411825e-05
          6.486988e-05 7.077140e-05 7.030525e-05 2.999203e-05 -2.105652e-05 -4.801212e-05
          -5.234176e-05 -5.115341e-05 -4.987224e-05 -4.999504e-05 -5.044318e-05 -4.547767e-05
          2.317063e-05 8.109488e-06 3.113441e-06 1.121531e-05 1.880675e-05 3.010542e-05
          2.129779e-06 -1.416335e-05 -2.288809e-05 -2.163059e-05 -2.845474e-05 -2.225979e-05
          1.306518e-06 9.703504e-06 3.147004e-05 5.292366e-05 -3.462293e-06 -3.113007e-05
          -3.193373e-05 -3.397312e-05 -1.442249e-05 1.079208e-05 2.256142e-05 2.418506e-05
          2.322180e-05 -7.085503e-06 -1.919378e-05 -2.305412e-05 -2.913973e-05 -3.141093e-05
          9.642579e-06 4.338954e-05 4.792033e-05 4.443225e-05 3.549351e-05 2.531415e-05
          1.808475e-05 -3.543345e-06 -2.032781e-05 3.248580e-05 -3.637695e-05 -4.406263e-05