<?xml version="1.0"?>
<VTKFile type="RectilinearGrid" version="0.1" byte_order="LittleEndian">
  <RectilinearGrid WholeExtent="0 47 0 47 0 47">
    <Piece Extent="0 47 0 47 0 47">
      <PointData Scalars="concentration">
        <DataArray type="Float32" Name="concentration" NumberOfComponents="1" format="ascii">
          -1.445961e-04 -1.267217e-04 -1.185184e-04 -1.270730e-04 -1.325641e-04 -1.355436e-04
          -9.152893e-05 -6.394903e-05 -1.006514e-04 -1.598591e-04 -1.631152e-04 -1.478007e-04
          -4.954011e-05 1.729218e-05 4.847483e-06 -1.386213e-05 8.064818e-05 1.400177e-04
          1.427579e-04 1.423006e-04 1.027085e-04 2.883107e-05 2.040721e-05 1.918783e-05
          2.302810e-05 1.134430e-04 1.369460e-04 1.418796e-04 1.477330e-04 1.463403e-04
          6.724327e-05 1.957078e-06 -4.586615e-06 -1.935309e-06 4.748700e-06 1.347316e-05
          2.521404e-05 5.311370e-05 7.619691e-05 -6.719040e-06 -6.677700e-05 -1.422178e-04
          -1.662186e-04 -1.646530e-04 -1.620354e-04 -1.655912e-04 -1.693292e-04 -1.631025e-04
          -4.995885e-05 -3.309486e-05 -2.462585e-05 -3.142978e-05 -3.649270e-05 -4.171537e-05
          -4.245309e-05 -1.070650e-04 -1.528075e-04 -2.053666e-04 -2.074288e-04 -1.860690e-04
          -5.105547e-05 4.112284e-05 3.587634e-05 1.915451e-05 5.310143e-05 5.076107e-05
          4.746901e-05 4.747145e-05 3.024929e-05 5.072492e-05 4.978331e-05 4.876134e-05
          4.753798e-05 3.382435e-05 4.154331e-05 4.669526e-05 5.470878e-05 6.306401e-05
          4.490022e-05 3.266623e-05 3.055338e-05 3.279828e-05 3.848510e-05 4.650442e-05
          5.668107e-05 7.695238e-05 8.261894e-05 -3.138512e-05 -1.150817e-04 -1.879333e-04
          -2.106150e-04 -2.087915e-04 -2.055808e-04 -2.085079e-04 -2.117237e-04 -2.071524e-04
          1.259295e-05 2.239030e-04 3.001662e-04 1.974692e-04 9.963872e-05 -4.826137e-05
          1.181359e-04 -1.883466e-04 -2.062384e-04 -2.902065e-04 -2.063965e-04 -2.029965e-04
          -1.050276e-05 2.126746e-04 -2.619817e-05 -3.173682e-04 1.087492e-04 1.127695e-04
          8.340761e-05 1.104331e-04 -3.439262e-05 2.116999e-04 1.098779e-04 8.787605e-05
          7.024714e-05 -1.534756e-04 -7.671681e-05 -1.730947e-05 8.028003e-05 1.769520e-04
          -2.795856e-05 -1.774999e-04 -2.147517e-04 -1.692513e-04 -5.739728e-05 7.016797e-05
          1.649381e-04 4.310819e-04 5.553499e-04 -4.820830e-04 3.751277e-05 2.255625e-06
          -1.403944e-04 -9.641358e-05 -7.564047e-05 -1.336733e-04 -2.039701e-04 -4.110431e-04
          1.059701e-04 -6.797419e-05 -1.251181e-04 -3.487448e-05 5.094839e-05 1.792983e-04
          -8.123572e-05 -1.138240e-04 -2.025449e-04 -2.049828e-04 -2.868342e-04 -2.352311e-04
          -7.811675e-05 -5.876779e-05 1.778796e-04 4.304933e-04 -5.885174e-05 -2.126285e-04
          -2.047468e-04 -2.296194e-04 -6.927615e-05 -4.391956e-05 7.007147e-05 8.982317e-05
          9.252310e-05 3.539254e-05 -6.144521e-05 -1.084234e-04 -1.822330e-04 -2.366098e-04
          7.062263e-05 3.168764e-04 3.590212e-04 3.185984e-04 2.189345e-04 1.088754e-04
          3.254485e-05 -2.029135e-04 -3.527181e-04 3.573108e-04 -3.586472e-04 -4.555054e-04
          -3.570852e-04 -3.951098e-04 -4.076578e-04 -3.556248e-04 -2.927875e-04 -8.849688e-05
          -3.191488e-05 1.204275e-04 1.758669e-04 1.027052e-04 3.418394e-05 -6.698111e-05
          5.889875e-05 -1.608648e-04 -1.908004e-04 -2.713123e-04 -2.149040e-04 -2.011877e-04
          1.145993e-06 2.014905e-04 3.533156e-05 -1.736757e-04 1.247505e-04 1.182567e-04
          9.599770e-05 1.146241e-04 1.223908e-05 2.057595e-04 1.370835e-04 1.216357e-04
          1.082487e-04 -6.778443e-05 -1.457680e-05 2.830203e-05 9.892951e-05 1.701698e-04
          3.097437e-05 -6.933295e-05 -9.557871e-05 -6.333611e-05 1.487694e-05 1.037434e-04
          1.715335e-04 3.632964e-04 4.493377e-04 -3.186865e-04 -1.074286e-05 -6.680634e-05
          -1.725929e-04 -1.409435e-04 -1.250609e-04 -1.657797e-04 -2.152926e-04 -3.544230e-04
          -1.242689e-04 3.104216e-05 8.736528e-05 1.144151e-05 -5.876574e-05 -1.598706e-04
          6.025683e-06 -1.330597e-04 -1.582333e-04 -2.499098e-04 -1.945979e-04 -1.871228e-04
          -2.137988e-05 1.544835e-04 -2.043133e-05 -2.322889e-04 1.403337e-04 2.051747e-04
          1.895534e-04 2.076957e-04 7.680842e-05 1.611437e-04 8.295181e-05 6.709083e-05
          5.952244e-05 4.261696e-06 7.694495e-05 1.202174e-04 1.892163e-04 2.500498e-04
          3.765614e-05 -1.257233e-04 -1.571103e-04 -1.241293e-04 -4.354618e-05 4.848517e-05
          1.200008e-04 3.219338e-04 4.284463e-04 -3.131088e-04 2.352118e-05 -4.059113e-05
          -1.511797e-04 -1.199679e-04 -1.046605e-04 -1.465490e-04 -1.971866e-04 -3.354165e-04
          -1.004888e-04 -3.246886e-04 -4.003225e-04 -2.878258e-04 -1.781181e-04 -7.313735e-06
          -2.261911e-04 -1.275585e-05 -9.306341e-05 -1.026195e-04 -2.103527e-04 -1.662400e-04
          -9.954460e-05 -1.671809e-04 1.181183e-04 4.415800e-04 -2.561422e-05 -5.127662e-05
          -2.364901e-05 -5.689738e-05 8.996903e-05 -1.452778e-04 -1.988315e-05 5.094691e-06
          2.294474e-05 2.428798e-04 1.609410e-04 9.897359e-05 -3.542386e-06 -1.021888e-04
          1.265496e-04 2.978779e-04 3.403795e-04 2.890711e-04 1.630484e-04 2.298799e-05
          -7.222436e-05 -3.583922e-04 -5.038804e-04 5.199325e-04 -3.104912e-04 -4.255755e-04
          -2.988025e-04 -3.490034e-04 -3.675975e-04 -3.019990e-04 -2.221720e-04 4.304991e-05
          -1.869648e-04 1.296278e-04 2.404878e-04 8.267794e-05 -6.516202e-05 -2.828345e-04
          9.071222e-05 -1.016929e-04 -7.387190e-05 -1.828612e-04 -5.505425e-05 -7.816508e-05
          4.275404e-05 2.657435e-04 -1.166933e-04 -5.603334e-04 2.147149e-04 3.667558e-04
          3.380367e-04 3.786361e-04 1.158373e-04 2.626179e-04 8.912207e-05 5.544634e-05
          4.085496e-05 -5.289091e-05 9.656056e-05 1.840135e-04 3.238235e-04 4.443875e-04
          -8.489808e-07 -3.467804e-04 -4.132497e-04 -3.437438e-04 -1.732338e-04 1.826887e-05
          1.601644e-04 5.752677e-04 8.042544e-04 -6.457199e-04 2.641614e-04 2.544030e-04
          4.822107e-05 1.145957e-04 1.431515e-04 5.421853e-05 -5.316838e-05 -3.712396e-04
          -6.581543e-05 -1.027907e-04 -1.142136e-04 -9.539486e-05 -7.603748e-05 -4.420863e-05
          -7.467731e-05 -3.284699e-05 -6.407902e-05 -8.865485e-05 -1.108277e-04 -9.546430e-05
          -3.921779e-05 -2.302595e-05 2.860289e-05 8.464434e-05 2.374126e-05 3.496656e-05
          4.082494e-05 3.418296e-05 4.981994e-05 -1.441679e-05 7.656927e-06 1.206873e-05
          1.645657e-05 8.311893e-05 7.454400e-05 6.444801e-05 4.692822e-05 2.823161e-05
          4.875792e-05 6.255358e-05 6.887707e-05 5.974949e-05 3.771983e-05 1.367682e-05
          -4.339986e-07 -4.625065e-05 -6.754167e-05 9.610519e-05 -9.274274e-05 -1.447530e-04
          -1.293482e-04 -1.385148e-04 -1.410369e-04 -1.296188e-04 -1.154086e-04 -6.128653e-05
          3.297470e-05 5.744411e-05 6.816976e-05 5.651829e-05 4.440514e-05 2.432587e-05
          1.063159e-05 -8.423506e-05 -1.054746e-04 -1.286477e-04 -1.211363e-04 -1.172958e-04
          -7.514353e-05 -3.646408e-05 -5.911138e-05 -8.704274e-05 -2.837767e-05 -2.067435e-05
          -2.370350e-05 -2.134547e-05 -4.559329e-05 -3.498955e-05 -4.690400e-05 -4.939408e-05
          -5.054048e-05 -5.665054e-05 -4.389834e-05 -3.651613e-05 -2.530154e-05 -1.515169e-05
          -4.958546e-05 -7.497015e-05 -7.888155e-05 -7.412794e-05 -6.047646e-05 -4.225121e-05
          -2.752162e-05 1.607368e-06 1.580451e-05 -1.058501e-04 -6.412764e-05 -8.927035e-05
          -1.130432e-04 -1.096544e-04 -1.072701e-04 -1.139098e-04 -1.215676e-04 -1.411461e-04
          1.698708e-04 2.046049e-04 2.199916e-04 2.030864e-04 1.825790e-04 1.438311e-04
          7.938452e-05 -1.287901e-04 -1.457098e-04 -1.504741e-04 -1.339732e-04 -1.405466e-04
          -1.475080e-04 -1.322842e-04 -1.679918e-04 -2.063035e-04 -1.386185e-04 -1.442212e-04
          -1.501148e-04 -1.454753e-04 -1.737390e-04 -1.378177e-04 -1.580898e-04 -1.621314e-04
          -1.651181e-04 -2.012040e-04 -1.869166e-04 -1.761217e-04 -1.593072e-04 -1.422341e-04
          -1.751187e-04 -1.968193e-04 -2.009195e-04 -1.934792e-04 -1.708262e-04 -1.391746e-04
          -1.168869e-04 -7.957252e-05 -6.347441e-05 -2.253841e-04 -8.611975e-05 -8.284866e-05
          -1.144414e-04 -1.099154e-04 -1.076299e-04 -1.181894e-04 -1.305204e-04 -1.729872e-04
          2.306621e-04 2.357220e-04 2.412289e-04 2.386239e-04 2.300306e-04 2.064830e-04
          8.689815e-05 -1.312321e-04 -1.477341e-04 -1.345483e-04 -1.283326e-04 -1.394792e-04
          -1.963960e-04 -2.259043e-04 -2.277024e-04 -2.219820e-04 -2.136405e-04 -2.202942e-04
          -2.223196e-04 -2.212704e-04 -2.310016e-04 -2.338633e-04 -2.417574e-04 -2.428953e-04
          -2.433094e-04 -2.452974e-04 -2.408498e-04 -2.380797e-04 -2.347362e-04 -2.311453e-04
          -2.363537e-04 -2.372716e-04 -2.356285e-04 -2.344536e-04 -2.257760e-04 -2.079713e-04
          -1.966820e-04 -1.989148e-04 -2.012266e-04 -2.111213e-04 -1.164999e-04 -1.005322e-04
          -1.143571e-04 -1.169251e-04 -1.180705e-04 -1.209354e-04 -1.238174e-04 -1.415788e-04
          2.318415e-04 2.206341e-04 2.200995e-04 2.256092e-04 2.248497e-04 2.133247e-04
          8.126704e-05 -1.158044e-04 -1.312021e-04 -1.111024e-04 -1.112855e-04 -1.211684e-04
          -1.840983e-04 -2.250138e-04 -2.077203e-04 -1.803010e-04 -2.140364e-04 -2.304450e-04
          -2.312031e-04 -2.321130e-04 -2.268483e-04 -2.328388e-04 -2.314831e-04 -2.308623e-04
          -2.307587e-04 -2.326875e-04 -2.367163e-04 -2.385081e-04 -2.422678e-04 -2.445712e-04
          -2.243804e-04 -2.055465e-04 -2.005921e-04 -2.029133e-04 -2.032328e-04 -1.961108e-04
          -1.928150e-04 -2.160266e-04 -2.302772e-04 -1.667507e-04 -1.194604e-04 -1.009704e-04
          -1.030169e-04 -1.087048e-04 -1.112118e-04 -1.094789e-04 -1.068319e-04 -1.085049e-04
          1.975552e-04 2.530795e-04 2.749426e-04 2.464749e-04 2.136049e-04 1.542308e-04
          1.122331e-04 -9.764345e-05 -8.985801e-05 -7.697352e-05 -4.727889e-05 -7.050707e-05
          -1.562988e-04 -1.806954e-04 -2.498233e-04 -3.183265e-04 -1.807724e-04 -1.557546e-04
          -1.614108e-04 -1.530666e-04 -2.040940e-04 -1.924649e-04 -2.311745e-04 -2.379261e-04
          -2.402573e-04 -2.490992e-04 -2.201030e-04 -2.037198e-04 -1.784208e-04 -1.569211e-04
          -2.381070e-04 -2.991997e-04 -3.091833e-04 -2.962911e-04 -2.594542e-04 -2.112142e-04
          -1.788288e-04 -1.133477e-04 -7.550133e-05 -3.013354e-04 -1.424126e-05 2.718835e-05
          -1.425488e-05 -5.407876e-06 -2.529754e-06 -2.022935e-05 -4.109680e-05 -1.170455e-04
          1.866590e-04 1.178372e-04 9.556864e-05 1.284110e-04 1.544680e-04 1.847379e-04
          3.455277e-05 -2.381890e-05 -2.254424e-05 2.488315e-05 2.457898e-06 -1.296123e-05
          -1.552826e-04 -2.750562e-04 -1.972646e-04 -9.278683e-05 -2.237690e-04 -2.204753e-04
          -2.109609e-04 -2.190944e-04 -1.798420e-04 -2.830125e-04 -2.568161e-04 -2.503051e-04
          -2.437642e-04 -1.518440e-04 -1.723675e-04 -1.907445e-04 -2.220779e-04 -2.541556e-04
          -1.970856e-04 -1.544744e-04 -1.410838e-04 -1.555219e-04 -1.861258e-04 -2.146852e-04
          -2.381043e-04 -3.309683e-04 -3.725280e-04 -1.054521e-05 -8.419853e-05 -4.653224e-05
          -7.020534e-06 -2.424892e-05 -3.274461e-05 -1.551376e-05 5.933899e-06 5.914455e-05
          1.385203e-04 2.385404e-04 2.743339e-04 2.220376e-04 1.669183e-04 7.496649e-05
          1.204292e-04 -3.529024e-05 5.999439e-06 2.411591e-05 7.545764e-05 3.324444e-05
          -1.263852e-04 -1.779264e-04 -3.122605e-04 -4.466423e-04 -1.602829e-04 -7.054598e-05
          -7.551019e-05 -6.071810e-05 -1.605935e-04 -1.942160e-04 -2.659646e-04 -2.779323e-04
          -2.788775e-04 -2.310984e-04 -1.714284e-04 -1.433587e-04 -1.003229e-04 -6.909089e-05
          -2.528591e-04 -3.980733e-04 -4.206548e-04 -3.971725e-04 -3.341655e-04 -2.575182e-04
          -2.056744e-04 -7.724449e-05 6.399448e-06 -3.814506e-04 1.163549e-04 1.925215e-04
          1.275719e-04 1.462628e-04 1.518272e-04 1.203913e-04 8.297628e-05 -4.732530e-05
          1.781403e-04 1.227396e-04 1.061051e-04 1.301824e-04 1.463080e-04 1.596880e-04
          1.917986e-05 -2.783365e-05 -1.690599e-05 3.003827e-05 1.394737e-05 -1.994420e-05
          -2.595270e-04 -4.360148e-04 -3.823051e-04 -2.905808e-04 -3.045128e-04 -2.081810e-04
          -1.914614e-04 -1.983809e-04 -2.048758e-04 -4.467728e-04 -4.419984e-04 -4.374922e-04
          -4.239904e-04 -1.803735e-04 -1.708133e-04 -1.856327e-04 -2.143864e-04 -2.556852e-04
          -3.049962e-04 -3.518902e-04 -3.460404e-04 -3.570943e-04 -3.761750e-04 -3.877929e-04
          -3.987353e-04 -4.697900e-04 -4.797775e-04 -1.141730e-04 -5.897082e-05 -8.589192e-06
          1.645239e-05 -5.433188e-07 -1.002808e-05 1.963659e-06 1.760621e-05 5.198345e-05
          1.867626e-04 1.470900e-04 1.376842e-04 1.534215e-04 1.603153e-04 1.583654e-04
          1.081391e-05 -7.982968e-05 -7.948791e-05 -4.790420e-05 -5.929744e-05 -9.785025e-05
          -3.528417e-04 -5.322638e-04 -4.965101e-04 -4.200527e-04 -3.552418e-04 -2.115378e-04
          -1.925897e-04 -1.983552e-04 -2.371810e-04 -5.425351e-04 -5.518097e-04 -5.491223e-04
          -5.326354e-04 -2.170219e-04 -1.877773e-04 -1.979489e-04 -2.212171e-04 -2.630593e-04
          -3.771325e-04 -4.769096e-04 -4.759495e-04 -4.837668e-04 -4.924621e-04 -4.887987e-04
          -4.874665e-04 -5.374231e-04 -5.276079e-04 -2.101749e-04 -9.285155e-05 -5.572972e-05
          -4.876900e-05 -6.473382e-05 -7.368257e-05 -6.642844e-05 -5.618433e-05 -3.557278e-05
          1.262862e-04 3.962492e-04 4.944041e-04 3.557640e-04 2.156965e-04 -7.289453e-06
          1.773082e-04 -1.608331e-04 -1.118541e-04 -1.504863e-04 -2.957959e-05 -1.012619e-04
          -2.953002e-04 -2.897914e-04 -6.324117e-04 -9.926272e-04 -2.127385e-04 3.590099e-05
          2.270023e-05 5.854647e-05 -2.182254e-04 -3.116560e-04 -4.907222e-04 -5.214259e-04
          -5.230772e-04 -3.783644e-04 -2.150181e-04 -1.394867e-04 -2.412970e-05 5.904092e-05
          -4.455335e-04 -8.449921e-04 -9.063496e-04 -8.453514e-04 -6.850159e-04 -4.914571e-04
          -3.531610e-04 -1.884973e-06 2.219398e-04 -8.827980e-04 1.990190e-04 2.763243e-04
          8.877193e-05 1.388530e-04 1.571875e-04 7.649051e-05 -1.982950e-05 -3.273072e-04
          1.836252e-04 6.484091e-05 2.782799e-05 8.345765e-05 1.290919e-04 1.866580e-04
          -3.778375e-05 -5.802819e-05 -7.382451e-05 -2.949226e-05 -7.574189e-05 -1.005580e-04
          -3.409492e-04 -5.486331e-04 -4.141681e-04 -2.276063e-04 -3.593000e-04 -2.566605e-04
          -2.308665e-04 -2.473780e-04 -2.196515e-04 -5.542050e-04 -5.169048e-04 -5.055023e-04
          -4.856565e-04 -1.523909e-04 -1.614220e-04 -1.934684e-04 -2.516447e-04 -3.230799e-04
          -3.228659e-04 -3.337942e-04 -3.161877e-04 -3.418037e-04 -3.950005e-04 -4.424205e-04
          -4.775098e-04 -6.301273e-04 -6.785769e-04 -1.230852e-05 -1.710936e-04 -1.527828e-04
          -9.543040e-05 -1.277311e-04 -1.430619e-04 -1.128830e-04 -7.495104e-05 3.273718e-05
          1.336579e-04 1.237123e-04 1.208131e-04 1.235571e-04 1.217608e-04 1.115950e-04
          5.780422e-05 1.727421e-05 4.561009e-05 8.933536e-05 9.382149e-05 6.625771e-05
          -9.875030e-05 -2.057603e-04 -2.063112e-04 -1.893056e-04 -1.703389e-04 -1.315350e-04
          -1.261468e-04 -1.259768e-04 -1.342353e-04 -2.170718e-04 -2.261654e-04 -2.261901e-04
          -2.220932e-04 -1.411438e-04 -1.335582e-04 -1.359216e-04 -1.416909e-04 -1.527169e-04
          -1.827496e-04 -2.093382e-04 -2.092226e-04 -2.102955e-04 -2.084460e-04 -2.024290e-04
          -2.015341e-04 -2.148345e-04 -2.096054e-04 -1.042935e-04 3.537074e-05 9.848573e-05
          1.055364e-04 1.018547e-04 9.818532e-05 9.818924e-05 9.878394e-05 8.569502e-05
          1.035250e-04 1.609663e-04 1.786552e-04 1.490022e-04 1.185670e-04 6.801814e-05
          1.254442e-04 7.624790e-05 1.349222e-04 1.818258e-04 2.183636e-04 1.913184e-04
          8.635812e-05 5.054215e-05 -3.327591e-05 -1.236948e-04 -3.179716e-05 -5.309684e-05
          -6.225823e-05 -5.143030e-05 -7.283998e-05 3.544396e-05 3.846676e-07 -6.644103e-06
          -1.416292e-05 -1.277101e-04 -1.158196e-04 -9.984062e-05 -7.238260e-05 -4.263375e-05
          -6.997071e-05 -8.813899e-05 -9.783311e-05 -8.369348e-05 -4.856794e-05 -1.167547e-05
          9.481763e-06 8.171520e-05 1.154273e-04 -1.394047e-04 1.748245e-04 2.696320e-04
          2.483284e-04 2.632500e-04 2.672078e-04 2.487131e-04 2.262597e-04 1.376994e-04
          1.806755e-04 -8.812439e-05 -1.837013e-04 -4.941287e-05 7.682054e-05 2.625227e-04
          -3.863311e-05 1.404720e-04 1.369261e-04 2.515575e-04 1.475310e-04 1.663762e-04
          6.135207e-05 -1.278054e-04 1.932439e-04 5.614730e-04 -1.459804e-04 -3.256749e-04
          -3.057128e-04 -3.386971e-04 -9.172290e-05 -1.287302e-04 2.308366e-05 5.157865e-05
          5.909809e-05 4.198155e-05 -9.996265e-05 -1.740672e-04 -2.907850e-04 -3.848378e-04
          4.658933e-05 3.850070e-04 4.438976e-04 3.851288e-04 2.398735e-04 7.286990e-05
          -5.278622e-05 -4.064436e-04 -6.110317e-04 5.950968e-04 -1.635419e-04 -1.247818e-04
          5.981834e-05 6.067124e-06 -1.752613e-05 5.756536e-05 1.482276e-04 4.096787e-04
          1.157435e-04 3.607959e-04 4.431984e-04 3.228628e-04 2.073173e-04 2.948732e-05
          2.680951e-04 -5.573684e-06 6.533775e-05 6.518926e-05 1.810554e-04 1.562349e-04
          2.198741e-04 3.820086e-04 8.135077e-05 -2.784088e-04 1.312423e-04 5.408011e-05
          1.366531e-05 5.029642e-05 -6.965907e-05 3.622599e-04 2.426768e-04 2.160948e-04
          1.873684e-04 -2.403162e-04 -1.790028e-04 -1.107742e-04 5.405588e-06 1.306252e-04
          -1.416285e-05 -1.112852e-04 -1.516230e-04 -9.641895e-05 3.621166e-05 1.792303e-04
          2.765291e-04 5.839315e-04 7.160093e-04 -4.863426e-04 3.006816e-04 4.022493e-04
          2.682207e-04 3.258287e-04 3.489309e-04 2.790029e-04 1.934979e-04 -8.802136e-05
          6.518709e-05 5.405080e-05 4.774042e-05 5.430638e-05 6.114392e-05 7.056812e-05
          6.733079e-05 6.897940e-05 9.337290e-05 1.306478e-04 1.327076e-04 1.356124e-04
          1.477015e-04 1.532029e-04 1.644225e-04 1.683536e-04 4.449069e-05 -5.894764e-05
          -6.693156e-05 -6.607791e-05 -1.288948e-05 1.478254e-04 1.638674e-04 1.650252e-04
          1.565791e-04 -2.264384e-05 -5.632342e-05 -5.944733e-05 -6.052108e-05 -4.873958e-05
          6.910044e-05 1.677086e-04 1.751592e-04 1.731627e-04 1.654603e-04 1.514183e-04
          1.376951e-04 1.185650e-04 8.862428e-05 9.011722e-05 6.246132e-05 1.060581e-04
          1.281930e-04 1.299607e-04 1.301599e-04 1.332189e-04 1.363928e-04 1.355592e-04
          -7.433358e-05 -1.271343e-04 -1.476613e-04 -1.246857e-04 -1.019824e-04 -6.686040e-05
          -5.492926e-05 1.444609e-04 1.844876e-04 2.246985e-04 2.072965e-04 1.860850e-04
          1.977625e-05 -1.129110e-04 -6.859078e-05 3.273523e-07 -3.409398e-05 4.153206e-05
          5.685865e-05 5.051570e-05 6.284468e-05 -1.165726e-04 -1.041281e-04 -9.926558e-05
          -8.874097e-05 9.395271e-05 9.298813e-05 7.731704e-05 4.982322e-05 1.278747e-05
          -8.539040e-06 -3.518144e-05 -3.115075e-05 -4.171532e-05 -6.664338e-05 -9.613636e-05
          -1.190821e-04 -1.777384e-04 -1.858837e-04 1.352962e-04 1.088349e-04 1.558782e-04
          1.963026e-04 1.854596e-04 1.784956e-04 1.911362e-04 2.070112e-04 2.490684e-04
          -1.096976e-04 3.596351e-05 8.495017e-05 8.016488e-06 -6.524682e-05 -1.756608e-04
          4.325935e-05 8.739459e-05 1.609864e-04 1.572197e-04 2.248970e-04 1.746104e-04
          1.431904e-06 -4.238058e-05 -2.437695e-04 -4.514681e-04 1.173823e-05 1.948920e-04
          1.934338e-04 2.134942e-04 5.682029e-05 -5.467577e-05 -1.575293e-04 -1.743241e-04
          -1.718853e-04 -2.582135e-05 7.040628e-05 1.096259e-04 1.694937e-04 2.059163e-04
          -1.066625e-04 -3.603183e-04 -3.984008e-04 -3.646611e-04 -2.791971e-04 -1.825934e-04
          -1.144441e-04 8.582776e-05 2.248151e-04 -3.356524e-04 2.966945e-04 3.740482e-04
          2.865990e-04 3.167571e-04 3.262878e-04 2.818499e-04 2.289021e-04 5.846346e-05
          -7.081709e-05 -1.895122e-04 -2.316355e-04 -1.761144e-04 -1.228721e-04 -4.208263e-05
          -1.123830e-04 1.258747e-04 1.430901e-04 1.847409e-04 1.366856e-04 1.226548e-04
          -5.735162e-05 -2.306749e-04 -1.039652e-04 6.283812e-05 -9.150801e-05 -6.072859e-06
          1.891039e-05 2.812392e-06 5.033915e-05 -2.298523e-04 -1.844411e-04 -1.724533e-04
          -1.551034e-04 1.252055e-04 1.054919e-04 7.173916e-05 1.359411e-05 -5.532294e-05
          -2.775573e-05 -1.936400e-05 -3.552060e-06 -2.902118e-05 -8.918979e-05 -1.559016e-04
          -2.042903e-04 -3.473215e-04 -3.942673e-04 2.443990e-04 7.647883e-06 2.787053e-05
          1.032371e-04 7.662732e-05 6.350152e-05 9.485062e-05 1.337110e-04 2.502467e-04
          -1.630321e-04 -2.058135e-05 2.702829e-05 -4.736757e-05 -1.165121e-04 -2.175884e-04
          1.758206e-05 8.654760e-05 1.489009e-04 1.302361e-04 1.932862e-04 1.549410e-04
          4.699915e-05 4.222670e-05 -1.505098e-04 -3.556674e-04 8.099828e-05 2.434866e-04
          2.404337e-04 2.595679e-04 1.129980e-04 3.466498e-05 -6.036388e-05 -7.637295e-05
          -7.545993e-05 3.673078e-05 1.260251e-04 1.643257e-04 2.233761e-04 2.617872e-04
          -2.690363e-05 -2.606679e-04 -2.972668e-04 -2.647055e-04 -1.838800e-04 -9.445228e-05
          -3.013700e-05 1.663244e-04 2.978670e-04 -2.738621e-04 2.803625e-04 3.329600e-04
          2.477157e-04 2.779787e-04 2.884239e-04 2.459971e-04 1.952781e-04 3.719702e-05
          -6.308689e-05 -1.276253e-04 -1.507906e-04 -1.203640e-04 -9.035970e-05 -4.356910e-05
          -6.966000e-05 7.676177e-05 8.501923e-05 1.037704e-04 7.681560e-05 7.282951e-05
          -4.236631e-06 -8.561159e-05 -1.585552e-05 7.319904e-05 -1.826956e-05 2.057612e-05
          3.348230e-05 2.464683e-05 5.405955e-05 -8.372735e-05 -5.689706e-05 -5.024375e-05
          -4.154190e-05 9.604177e-05 8.293345e-05 6.452524e-05 3.314890e-05 -3.067381e-06
          2.004452e-05 3.129014e-05 4.015434e-05 2.616166e-05 -7.615374e-06 -4.623258e-05
          -7.385895e-05 -1.511656e-04 -1.783453e-04 1.596622e-04 9.264688e-06 1.439968e-05
          5.637602e-05 4.243738e-05 3.574609e-05 5.308851e-05 7.455639e-05 1.405098e-04
          3.056804e-05 9.431550e-05 1.179355e-04 8.619735e-05 5.486020e-05 5.600805e-06
          4.205644e-05 -6.480156e-05 -6.695485e-05 -8.700813e-05 -6.048927e-05 -6.669875e-05
          -5.039481e-05 -9.357926e-06 -8.403961e-05 -1.693434e-04 -1.734290e-05 7.563385e-06
          9.018468e-07 9.065970e-06 -4.465561e-05 -1.182069e-05 -4.745296e-05 -5.435734e-05
          -5.760052e-05 -8.153938e-05 -5.149644e-05 -3.349520e-05 -4.815553e-06 2.036466e-05
          -6.583524e-05 -1.316315e-04 -1.439663e-04 -1.300516e-04 -9.426833e-05 -5.164185e-05
          -2.036994e-05 6.031140e-05 1.036616e-04 -1.881017e-04 9.739989e-06 8.511171e-06
          -3.663381e-05 -2.438638e-05 -1.896002e-05 -3.719783e-05 -5.899426e-05 -1.255381e-04
          8.666245e-05 1.458677e-04 1.696599e-04 1.424967e-04 1.150367e-04 7.104399e-05
          5.325230e-05 -1.617840e-04 -2.013299e-04 -2.433414e-04 -2.230013e-04 -2.091982e-04
          -8.074703e-05 3.065578e-05 -2.362615e-05 -9.780827e-05 -1.355560e-05 -5.153279e-05
          -6.432955e-05 -5.751288e-05 -9.004027e-05 3.288258e-05 1.116443e-05 5.364935e-06
          -2.416869e-06 -1.233153e-04 -1.092795e-04 -9.183567e-05 -6.260177e-05 -2.899018e-05
          -5.229125e-05 -6.293894e-05 -6.991520e-05 -5.789544e-05 -2.742013e-05 1.064365e-05
          4.011367e-05 1.081683e-04 1.292635e-04 -1.956363e-04 -1.135929e-04 -1.577172e-04
          -2.061723e-04 -1.954486e-04 -1.888025e-04 -2.040291e-04 -2.225300e-04 -2.731490e-04
          1.490070e-04 1.114136e-04 1.017779e-04 1.242095e-04 1.437597e-04 1.698469e-04
          2.547770e-05 -1.682212e-04 -2.340304e-04 -2.563188e-04 -2.776902e-04 -2.444638e-04
          -8.138481e-05 7.620783e-06 7.798554e-05 1.401349e-04 -4.784424e-05 -1.694687e-04
          -1.772830e-04 -1.832635e-04 -1.232205e-04 1.410977e-05 5.286995e-05 5.776891e-05
          5.143072e-05 -1.035022e-04 -1.444033e-04 -1.534549e-04 -1.655385e-04 -1.625384e-04
          -1.400735e-05 1.123159e-04 1.280772e-04 1.183145e-04 9.434401e-05 7.081423e-05
          5.562006e-05 -6.142245e-06 -6.590400e-05 1.854350e-05 -2.445259e-04 -3.099396e-04
          -2.970366e-04 -3.063131e-04 -3.072523e-04 -2.941774e-04 -2.787715e-04 -2.247830e-04
          1.576903e-04 1.615073e-04 1.656228e-04 1.674365e-04 1.672300e-04 1.630733e-04
          6.415212e-05 -1.618845e-04 -2.132105e-04 -2.350922e-04 -2.369117e-04 -2.102580e-04
          -5.025437e-05 5.695491e-05 7.505521e-05 7.681690e-05 -2.925169e-05 -1.504304e-04
          -1.636800e-04 -1.635400e-04 -1.286226e-04 5.999275e-05 7.664018e-05 7.698187e-05
          6.698380e-05 -1.366371e-04 -1.637874e-04 -1.614630e-04 -1.545335e-04 -1.325614e-04
          -2.175015e-05 7.674654e-05 8.484197e-05 8.450584e-05 8.328088e-05 8.453096e-05
          8.619550e-05 7.734192e-05 4.344513e-05 -6.532984e-05 -1.847052e-04 -2.310707e-04
          -2.409497e-04 -2.406764e-04 -2.380160e-04 -2.368674e-04 -2.360885e-04 -2.299716e-04
          6.143926e-05 1.984326e-04 2.478163e-04 1.823786e-04 1.193609e-04 2.306628e-05
          1.054037e-04 -1.492929e-04 -1.680962e-04 -2.201146e-04 -1.653717e-04 -1.575605e-04
          8.192422e-07 1.682311e-04 1.830820e-05 -1.700307e-04 6.403562e-05 2.314388e-05
          -2.626098e-07 1.762856e-05 -6.053651e-05 1.670575e-04 1.065928e-04 9.249568e-05
          7.753833e-05 -1.420210e-04 -1.034183e-04 -6.473468e-05 2.316202e-07 7.012504e-05
          -2.001137e-05 -7.963058e-05 -1.010272e-04 -7.153320e-05 -5.029471e-08 8.165165e-05
          1.416243e-04 3.098017e-04 3.782614e-04 -3.201722e-04 -7.571105e-06 -3.194582e-05
          -1.235024e-04 -9.452408e-05 -8.051709e-05 -1.174526e-04 -1.627616e-04 -2.972786e-04
          -3.795482e-05 -1.599212e-04 -2.020347e-04 -1.388149e-04 -7.601320e-05 2.308793e-05
          -9.935953e-05 -1.533148e-05 -6.794777e-05 -7.551843e-05 -1.348455e-04 -9.540078e-05
          3.161804e-05 5.367584e-05 2.168486e-04 3.885542e-04 5.463550e-05 -4.076244e-05
          -3.375693e-05 -5.134880e-05 6.075054e-05 6.751185e-05 1.485900e-04 1.627044e-04
          1.654535e-04 1.399848e-04 7.319995e-05 3.948938e-05 -1.315991e-05 -5.337215e-05
          1.531817e-04 3.169413e-04 3.445729e-04 3.164087e-04 2.439451e-04 1.604284e-04
          1.029176e-04 -5.765555e-05 -1.579390e-04 3.409998e-04 -1.898821e-04 -2.633187e-04
          -1.893386e-04 -2.144831e-04 -2.227438e-04 -1.855533e-04 -1.410710e-04 7.599217e-06
          -1.852598e-04 6.149254e-05 1.456255e-04 2.549830e-05 -8.363366e-05 -2.390639e-04
          8.204405e-05 -5.491725e-05 -4.092466e-05 -1.330200e-04 -3.541675e-05 -2.840437e-05
          2.114195e-04 4.783459e-04 1.902711e-04 -1.654755e-04 3.252647e-04 3.291146e-04
          2.956109e-04 3.278672e-04 1.708912e-04 4.807485e-04 3.653013e-04 3.399612e-04
          3.185576e-04 3.657979e-05 1.206112e-04 1.884848e-04 3.016994e-04 4.145134e-04
          1.851111e-04 1.563412e-05 -3.039887e-05 2.334557e-05 1.491207e-04 2.838619e-04
          3.838611e-04 7.029515e-04 8.528286e-04 -3.648432e-04 2.101924e-04 1.833307e-04
          3.268674e-05 8.854079e-05 1.139249e-04 4.706604e-05 -3.479503e-05 -2.732840e-04
          -7.496287e-05 -7.870074e-05 -7.796654e-05 -7.206403e-05 -6.297888e-05 -4.310454e-05
          -5.980416e-05 -1.258789e-04 -1.961358e-04 -2.634766e-04 -2.785473e-04 -2.325714e-04
          2.716603e-05 1.888799e-04 2.203651e-04 2.297428e-04 1.448137e-04 6.270023e-05
          5.419450e-05 5.108798e-05 7.738798e-05 2.053512e-04 2.301906e-04 2.322059e-04
          2.260654e-04 9.512535e-05 7.430007e-05 7.374347e-05 7.523373e-05 8.722793e-05
          1.680033e-04 2.384525e-04 2.444593e-04 2.415011e-04 2.304688e-04 2.168767e-04
          2.126026e-04 2.024025e-04 1.740332e-04 9.089685e-05 -1.799850e-04 -2.910095e-04
          -2.989127e-04 -2.997160e-04 -2.960242e-04 -2.908003e-04 -2.850293e-04 -2.459892e-04
          4.445732e-05 5.706022e-05 6.656560e-05 6.182463e-05 5.572299e-05 4.457113e-05
          -2.821337e-05 -1.988655e-04 -2.659829e-04 -3.246446e-04 -3.295112e-04 -3.109939e-04
          -1.962152e-04 -1.179089e-04 -1.130633e-04 -1.129644e-04 -6.554488e-05 -4.735797e-05
          -4.877774e-05 -5.008020e-05 -7.906555e-05 -1.093099e-04 -1.122456e-04 -1.129682e-04
          -1.114489e-04 -7.264585e-05 -5.797738e-05 -5.351344e-05 -4.791167e-05 -4.497432e-05
          -8.437208e-05 -1.133486e-04 -1.146135e-04 -1.134010e-04 -1.074701e-04 -9.312116e-05
          -7.793292e-05 -6.683050e-05 -6.198674e-05 -1.384204e-04 -2.129533e-04 -2.985876e-04
          -3.289702e-04 -3.311773e-04 -3.294113e-04 -3.313030e-04 -3.331889e-04 -3.241515e-04
          2.014572e-04 2.000193e-04 2.037778e-04 2.051299e-04 2.015939e-04 1.873912e-04
          6.133105e-05 -1.588231e-04 -1.935163e-04 -1.975785e-04 -1.979045e-04 -1.978339e-04
          -1.959223e-04 -1.919719e-04 -1.795637e-04 -1.630698e-04 -1.796501e-04 -1.987150e-04
          -2.013959e-04 -2.020959e-04 -2.046534e-04 -1.953325e-04 -1.950057e-04 -1.950581e-04
          -1.957777e-04 -2.096885e-04 -2.103106e-04 -2.094827e-04 -2.086165e-04 -2.060680e-04
          -1.937702e-04 -1.801053e-04 -1.763856e-04 -1.771838e-04 -1.743469e-04 -1.631102e-04
          -1.549845e-04 -1.663801e-04 -1.771977e-04 -1.759534e-04 -1.642102e-04 -1.781934e-04
          -1.909452e-04 -1.950873e-04 -1.959757e-04 -1.959841e-04 -1.955322e-04 -1.967431e-04
          1.870109e-04 1.718190e-04 1.679235e-04 1.765270e-04 1.815231e-04 1.820984e-04
          8.424238e-05 -6.189290e-05 -6.972625e-05 -4.511923e-05 -4.663066e-05 -4.525958e-05
          -4.496956e-05 -4.751832e-05 -2.382791e-05 3.677143e-08 -1.051163e-04 -1.850548e-04
          -1.910134e-04 -1.918228e-04 -1.547339e-04 -5.347846e-05 -3.978843e-05 -3.837826e-05