<?xml version="1.0"?>
<VTKFile type="RectilinearGrid" version="0.1" byte_order="LittleEndian">
  <RectilinearGrid WholeExtent="0 47 0 47 0 47">
    <Piece Extent="0 47 0 47 0 47">
      <PointData Scalars="concentration">
        <DataArray type="Float32" Name="concentration" NumberOfComponents="1" format="ascii">
          2.509893e-04 2.703518e-04 2.829741e-04 2.757280e-04 2.633533e-04 2.347193e-04
          8.547356e-05 -2.498917e-04 -3.120411e-04 -3.390327e-04 -3.337796e-04 -3.210397e-04
          -2.288092e-04 -1.566512e-04 -1.575442e-04 -1.660215e-04 -1.772686e-04 -2.357091e-04
          -2.455383e-04 -2.441888e-04 -2.501381e-04 -1.571528e-04 -1.598007e-04 -1.617852e-04
          -1.671122e-04 -2.668127e-04 -2.687501e-04 -2.612543e-04 -2.490933e-04 -2.301709e-04
          -2.017141e-04 -1.699951e-04 -1.670258e-04 -1.639891e-04 -1.516303e-04 -1.279855e-04
          -1.098881e-04 -9.977008e-05 -1.111224e-04 -2.466713e-04 -2.465349e-04 -2.916351e-04
          -3.234324e-04 -3.236789e-04 -3.216955e-04 -3.262474e-04 -3.315127e-04 -3.464431e-04
          1.638155e-05 3.659963e-05 4.662635e-05 4.026155e-05 3.517795e-05 2.900548e-05
          -6.265371e-06 -1.639258e-04 -2.287456e-04 -2.876714e-04 -2.893491e-04 -2.539530e-04
          -3.432403e-05 1.150798e-04 1.162310e-04 9.520638e-05 6.584069e-05 -9.612726e-06
          -2.086289e-05 -2.016929e-05 -1.406113e-05 1.260415e-04 1.343718e-04 1.332535e-04
          1.257723e-04 -1.702692e-05 -2.661772e-05 -1.985273e-05 -7.282013e-06 1.465950e-05
          6.469546e-05 1.124100e-04 1.144397e-04 1.169790e-04 1.219154e-04 1.292188e-04
          1.385414e-04 1.564702e-04 1.436413e-04 -3.861982e-05 -1.808977e-04 -2.700981e-04
          -2.952498e-04 -2.918689e-04 -2.870980e-04 -2.895184e-04 -2.927924e-04 -2.878994e-04
          -1.763759e-04 3.864423e-05 1.144329e-04 1.121537e-05 -8.223126e-05 -2.142385e-04
          3.519216e-05 -1.502281e-04 -1.811157e-04 -3.013786e-04 -2.239243e-04 -1.998405e-04
          1.102900e-04 4.062443e-04 1.685240e-04 -1.337666e-04 2.939000e-04 2.943343e-04
          2.640875e-04 2.905182e-04 1.473384e-04 4.162806e-04 3.215397e-04 2.999130e-04
          2.814337e-04 4.054125e-05 1.156609e-04 1.755812e-04 2.745244e-04 3.733663e-04
          1.715513e-04 2.364623e-05 -1.530540e-05 3.028883e-05 1.375649e-04 2.552364e-04
          3.459718e-04 6.219336e-04 7.479953e-04 -3.394597e-04 5.818420e-05 -2.740733e-05
          -1.706658e-04 -1.239881e-04 -1.008230e-04 -1.574824e-04 -2.267312e-04 -4.170120e-04
          -1.440911e-04 -3.137723e-04 -3.711089e-04 -2.826749e-04 -1.932407e-04 -4.875513e-05
          -2.037025e-04 -6.231334e-05 -1.622381e-04 -2.095093e-04 -2.993193e-04 -2.322030e-04
          1.109517e-05 8.156945e-05 3.150179e-04 5.578429e-04 1.255492e-04 2.475561e-05
          3.719798e-05 1.114515e-05 1.509170e-04 1.090012e-04 2.232920e-04 2.432829e-04
          2.498859e-04 2.746338e-04 1.913171e-04 1.446644e-04 7.012481e-05 8.852629e-06
          2.623115e-04 4.611717e-04 4.979820e-04 4.578327e-04 3.548375e-04 2.371100e-04
          1.595715e-04 -6.085847e-05 -1.940253e-04 4.963765e-04 -3.214977e-04 -4.757289e-04
          -3.814272e-04 -4.178538e-04 -4.286273e-04 -3.757825e-04 -3.121705e-04 -8.871545e-05
          -1.045762e-04 5.197046e-05 1.097000e-04 3.400136e-05 -3.658607e-05 -1.389264e-04
          6.178053e-07 -1.920931e-04 -2.378134e-04 -3.451495e-04 -2.923795e-04 -2.782286e-04
          -7.404661e-05 1.267343e-04 -4.297660e-05 -2.513703e-04 1.218074e-04 1.837258e-04
          1.671707e-04 1.849539e-04 5.011531e-05 1.359051e-04 5.939766e-05 4.353384e-05
          3.588409e-05 -1.983241e-05 5.407603e-05 9.802759e-05 1.678058e-04 2.297196e-04
          1.648550e-05 -1.463634e-04 -1.773388e-04 -1.444621e-04 -6.380064e-05 3.053036e-05
          1.048977e-04 3.061529e-04 4.102591e-04 -3.461748e-04 -4.331887e-05 -1.325873e-04
          -2.499807e-04 -2.198806e-04 -2.041495e-04 -2.457066e-04 -2.958315e-04 -4.288618e-04
          6.667932e-05 2.261735e-04 2.875746e-04 2.097886e-04 1.324937e-04 1.173345e-05
          6.300060e-05 -2.806069e-04 -3.336918e-04 -4.271221e-04 -3.694074e-04 -3.682983e-04
          -2.344817e-04 -7.418320e-05 -2.466147e-04 -4.488712e-04 -5.495069e-05 1.926862e-05
          3.082052e-06 2.144434e-05 -1.261878e-04 -7.187695e-05 -1.570468e-04 -1.738073e-04
          -1.800964e-04 -2.061083e-04 -1.247451e-04 -7.917628e-05 -8.001327e-06 5.340080e-05
          -1.799292e-04 -3.573542e-04 -3.880746e-04 -3.543028e-04 -2.667335e-04 -1.580861e-04
          -7.485344e-05 1.246160e-04 2.309595e-04 -5.134053e-04 -1.177047e-04 -1.878865e-04
          -3.150957e-04 -2.874087e-04 -2.731613e-04 -3.169294e-04 -3.692990e-04 -5.167983e-04
          2.072732e-04 -1.268986e-05 -8.252847e-05 2.940609e-05 1.317272e-04 2.788041e-04
          -1.066460e-04 -2.076482e-04 -3.241346e-04 -3.251357e-04 -4.279706e-04 -3.843817e-04
          -3.126099e-04 -3.691922e-04 -7.506363e-05 2.582288e-04 -2.569209e-04 -3.461861e-04
          -3.264512e-04 -3.586907e-04 -2.025270e-04 -3.545434e-04 -2.283778e-04 -2.042394e-04
          -1.912053e-04 -6.712255e-05 -1.586888e-04 -2.177531e-04 -3.149036e-04 -4.008581e-04
          -1.219786e-04 9.734500e-05 1.454856e-04 9.482961e-05 -2.449375e-05 -1.477524e-04
          -2.326560e-04 -5.286720e-04 -6.940406e-04 2.858645e-04 -5.022258e-04 -6.161542e-04
          -5.046739e-04 -5.577175e-04 -5.766696e-04 -5.126029e-04 -4.344969e-04 -1.831413e-04
          2.876354e-05 3.491185e-04 4.641711e-04 3.066834e-04 1.550863e-04 -7.595772e-05
          1.797100e-04 -2.513744e-04 -2.577436e-04 -3.671957e-04 -2.369283e-04 -2.507005e-04
          -6.939178e-05 1.982311e-04 -1.737824e-04 -6.132812e-04 9.240993e-05 1.613755e-04
          1.231514e-04 1.645710e-04 -7.765396e-05 1.921132e-04 2.560715e-05 -8.452501e-06
          -2.977598e-05 -2.596184e-04 -1.269303e-04 -3.708436e-05 1.083727e-04 2.445490e-04
          -1.278472e-04 -4.076189e-04 -4.680540e-04 -3.982023e-04 -2.248451e-04 -2.480306e-05
          1.221842e-04 5.291732e-04 7.344261e-04 -7.814871e-04 1.088701e-04 8.706025e-05
          -1.292016e-04 -6.372671e-05 -3.433746e-05 -1.235854e-04 -2.317097e-04 -5.559804e-04
          3.119647e-05 -1.788173e-06 -1.054327e-05 9.048789e-06 2.842966e-05 5.845805e-05
          -2.933290e-05 -1.305628e-04 -1.942866e-04 -2.326077e-04 -2.553652e-04 -2.199693e-04
          -4.327382e-05 5.384532e-05 1.163820e-04 1.696071e-04 2.732390e-05 -5.547279e-05
          -5.997068e-05 -6.606367e-05 -2.201054e-05 6.483533e-05 9.949425e-05 1.039690e-04
          1.003403e-04 4.246502e-06 -2.592037e-05 -3.406237e-05 -4.575414e-05 -4.699570e-05
          6.020239e-05 1.506211e-04 1.625971e-04 1.535903e-04 1.305601e-04 1.063421e-04
          9.227367e-05 4.216063e-05 -3.985990e-06 7.086566e-05 -2.053271e-04 -2.874751e-04
          -2.775645e-04 -2.855483e-04 -2.858834e-04 -2.736788e-04 -2.592736e-04 -2.022512e-04
          -6.399386e-05 -3.537090e-05 -2.406232e-05 -3.444670e-05 -4.095093e-05 -4.535581e-05
          -2.319136e-05 -1.088572e-04 -1.625871e-04 -2.243999e-04 -2.231159e-04 -1.839993e-04
          6.332653e-05 2.332674e-04 2.221930e-04 1.827468e-04 1.594344e-04 7.489698e-05
          6.195292e-05 6.412497e-05 7.247275e-05 2.460319e-04 2.532782e-04 2.515610e-04
          2.420762e-04 6.653571e-05 5.549028e-05 6.403934e-05 8.054099e-05 1.078263e-04
          1.623964e-04 2.135419e-04 2.137379e-04 2.181462e-04 2.252505e-04 2.310488e-04
          2.394546e-04 2.709136e-04 2.627868e-04 2.852437e-05 -1.182000e-04 -2.065252e-04
          -2.308523e-04 -2.238189e-04 -2.173881e-04 -2.216485e-04 -2.275560e-04 -2.285399e-04
          -1.205835e-04 -8.171603e-05 -6.773724e-05 -8.278246e-05 -9.197396e-05 -9.747167e-05
          -3.526731e-05 -8.579390e-05 -1.372381e-04 -2.072750e-04 -2.030558e-04 -1.585467e-04
          1.275510e-04 3.262417e-04 3.035616e-04 2.459007e-04 2.315587e-04 1.363227e-04
          1.210424e-04 1.246312e-04 1.325398e-04 3.411875e-04 3.468196e-04 3.443296e-04
          3.327982e-04 1.230064e-04 1.116053e-04 1.227288e-04 1.441403e-04 1.778446e-04
          2.353309e-04 2.893369e-04 2.878622e-04 2.943718e-04 3.048187e-04 3.118259e-04
          3.216343e-04 3.675172e-04 3.636702e-04 6.606738e-05 -8.827454e-05 -1.839251e-04
          -2.117015e-04 -2.012818e-04 -1.930688e-04 -1.995815e-04 -2.084607e-04 -2.156947e-04
          4.643637e-05 5.296910e-05 5.755070e-05 5.752723e-05 5.813418e-05 5.944326e-05
          1.234804e-05 -1.273653e-04 -1.779442e-04 -2.155338e-04 -2.195074e-04 -1.892703e-04
          -9.046867e-06 1.099789e-04 1.232246e-04 1.185094e-04 4.679760e-05 -4.367316e-05
          -5.425186e-05 -5.431023e-05 -3.115589e-05 1.175058e-04 1.319256e-04 1.322580e-04
          1.243419e-04 -3.223899e-05 -5.133470e-05 -4.853598e-05 -4.186002e-05 -2.372740e-05
          5.557752e-05 1.262039e-04 1.315121e-04 1.314220e-04 1.299555e-04 1.289339e-04
          1.306327e-04 1.303697e-04 1.069662e-04 -7.936720e-06 -1.517554e-04 -2.156710e-04
          -2.273007e-04 -2.260735e-04 -2.227300e-04 -2.218737e-04 -2.213946e-04 -2.101935e-04
          2.540945e-04 2.400721e-04 2.394204e-04 2.480188e-04 2.510885e-04 2.459340e-04
          8.844728e-05 -1.675548e-04 -2.066601e-04 -2.014471e-04 -2.058471e-04 -1.988221e-04
          -1.653410e-04 -1.455425e-04 -1.140224e-04 -8.188285e-05 -1.781555e-04 -2.542447e-04
          -2.607201e-04 -2.624365e-04 -2.349292e-04 -1.493811e-04 -1.360175e-04 -1.344560e-04
          -1.389040e-04 -2.387527e-04 -2.588535e-04 -2.610110e-04 -2.638879e-04 -2.575009e-04
          -1.769224e-04 -1.057752e-04 -9.623659e-05 -9.995799e-05 -1.050144e-04 -1.037178e-04
          -1.038414e-04 -1.355569e-04 -1.685997e-04 -1.414355e-04 -1.913754e-04 -2.024743e-04
          -2.045339e-04 -2.102033e-04 -2.114392e-04 -2.073299e-04 -2.023423e-04 -1.922214e-04
          2.639574e-04 3.152786e-04 3.362430e-04 3.115701e-04 2.825208e-04 2.279148e-04
          1.494689e-04 -1.378473e-04 -1.450640e-04 -1.325522e-04 -1.046866e-04 -1.140035e-04
          -1.200726e-04 -9.367892e-05 -1.485716e-04 -2.124753e-04 -1.623112e-04 -2.198569e-04
          -2.331268e-04 -2.250692e-04 -2.429113e-04 -1.045667e-04 -1.297445e-04 -1.355595e-04
          -1.443466e-04 -2.913496e-04 -2.852769e-04 -2.695422e-04 -2.430003e-04 -2.097142e-04
          -2.057802e-04 -1.935954e-04 -1.973541e-04 -1.859596e-04 -1.539272e-04 -1.121392e-04
          -8.501774e-05 -3.160421e-05 -1.843553e-05 -2.805033e-04 -7.087183e-05 -3.984136e-05
          -7.698427e-05 -6.764071e-05 -6.371162e-05 -7.904935e-05 -9.768274e-05 -1.668551e-04
          2.163905e-04 1.431899e-04 1.183789e-04 1.559235e-04 1.886422e-04 2.308119e-04
          7.671623e-05 -1.791961e-05 -2.357324e-05 2.765949e-05 3.967767e-06 1.044132e-05
          -5.558808e-06 -4.478031e-05 4.799320e-05 1.494483e-04 -1.174434e-04 -2.451237e-04
          -2.476471e-04 -2.554566e-04 -1.602411e-04 -5.079464e-05 -3.233070e-06 4.506202e-06
          8.738648e-08 -1.383177e-04 -1.964353e-04 -2.157660e-04 -2.441008e-04 -2.566063e-04
          -6.294760e-05 9.592694e-05 1.176846e-04 1.016583e-04 6.321086e-05 2.043779e-05
          -1.436962e-05 -1.197809e-04 -1.966450e-04 9.476023e-05 -9.894542e-05 -6.770754e-05
          -1.597069e-05 -3.008700e-05 -3.623721e-05 -1.588812e-05 8.214508e-06 6.944963e-05
          1.234342e-04 2.199352e-04 2.523703e-04 2.052040e-04 1.590215e-04 8.534531e-05
          1.556422e-04 -2.281097e-06 3.294510e-05 5.087226e-05 1.003590e-04 8.908685e-05
          1.086051e-04 1.713278e-04 5.300437e-05 -9.100258e-05 2.658101e-05 -4.939748e-05
          -6.976666e-05 -5.433222e-05 -8.299112e-05 1.594006e-04 1.153855e-04 1.048837e-04
          8.967618e-05 -1.597247e-04 -1.477696e-04 -1.206225e-04 -7.293409e-05 -1.605769e-05
          -2.740793e-05 -2.633613e-05 -3.921648e-05 -1.732266e-05 3.543054e-05 9.180956e-05
          1.281424e-04 2.451953e-04 2.862108e-04 -2.062901e-04 1.228667e-04 1.854529e-04
          1.368868e-04 1.607376e-04 1.699557e-04 1.422225e-04 1.078454e-04 -1.112552e-05
          1.126284e-04 5.849713e-05 3.993700e-05 6.861865e-05 9.531958e-05 1.330089e-04
          3.432059e-05 -2.032496e-05 -3.625189e-05 -1.410706e-05 -3.490593e-05 -1.882683e-05
          3.332922e-05 4.421638e-05 1.177998e-04 1.915955e-04 -2.385148e-05 -1.367263e-04
          -1.404880e-04 -1.467076e-04 -6.952391e-05 4.415867e-05 8.518451e-05 9.132829e-05
          8.640871e-05 -4.880720e-05 -9.682506e-05 -1.112376e-04 -1.316046e-04 -1.378001e-04
          2.398217e-05 1.571776e-04 1.741885e-04 1.618504e-04 1.306688e-04 9.436520e-05
          6.659547e-05 -1.138780e-05 -7.336256e-05 1.176196e-04 -9.181631e-05 -9.335382e-05
          -5.544231e-05 -6.526802e-05 -6.867621e-05 -5.255691e-05 -3.361801e-05 2.050661e-05
          6.788510e-05 3.502054e-05 2.628741e-05 4.595388e-05 6.493097e-05 9.313262e-05
          -7.538800e-06 -1.348584e-04 -1.963349e-04 -2.275284e-04 -2.487497e-04 -2.140960e-04
          -4.068934e-05 5.555565e-05 1.181605e-04 1.710049e-04 1.152043e-05 -8.938758e-05
          -9.568572e-05 -1.011823e-04 -5.020191e-05 6.464047e-05 1.003070e-04 1.048912e-04
          9.957276e-05 -2.788041e-05 -6.262914e-05 -7.077543e-05 -8.179878e-05 -8.000612e-05
          4.516398e-05 1.509778e-04 1.642799e-04 1.553197e-04 1.327115e-04 1.087966e-04
          9.424434e-05 4.223554e-05 -8.308461e-06 5.950885e-05 -2.076981e-04 -2.808795e-04
          -2.696950e-04 -2.774455e-04 -2.776362e-04 -2.655917e-04 -2.514946e-04 -1.979002e-04
          2.989185e-05 3.071373e-04 4.070370e-04 2.720492e-04 1.429732e-04 -5.279586e-05
          1.586819e-04 -2.492326e-04 -2.706816e-04 -3.773536e-04 -2.669774e-04 -2.659930e-04
          -3.457410e-05 2.450109e-04 -6.942707e-05 -4.499522e-04 1.187829e-04 1.345758e-04
          9.698657e-05 1.328238e-04 -6.153066e-05 2.426961e-04 1.067517e-04 7.786904e-05
          5.556580e-05 -2.184425e-04 -1.147281e-04 -3.686902e-05 9.057898e-05 2.157303e-04
          -6.359348e-05 -2.686894e-04 -3.180876e-04 -2.582291e-04 -1.107258e-04 5.846562e-05
          1.836589e-04 5.326543e-04 6.980947e-04 -6.514431e-04 5.002122e-05 9.146491e-06
          -1.786231e-04 -1.214415e-04 -9.460987e-05 -1.706904e-04 -2.632244e-04 -5.369905e-04
          1.182545e-04 6.430295e-06 -2.836498e-05 3.049363e-05 8.546031e-05 1.657680e-04
          -4.872691e-05 -1.585359e-04 -2.429592e-04 -2.617526e-04 -3.175756e-04 -2.763583e-04
          -1.296021e-04 -8.740279e-05 7.363854e-05 2.432654e-04 -7.953423e-05 -1.889001e-04
          -1.854510e-04 -2.020423e-04 -1.008796e-04 -7.547240e-05 6.318682e-07 1.364548e-05
          1.476637e-05 -3.120165e-05 -9.380869e-05 -1.235116e-04 -1.704829e-04 -2.034877e-04
          4.635713e-07 1.658371e-04 1.945489e-04 1.679171e-04 1.036528e-04 3.582756e-05
          -9.875156e-06 -1.651964e-04 -2.672812e-04 1.752207e-04 -3.269734e-04 -4.186531e-04
          -3.635852e-04 -3.899003e-04 -3.975686e-04 -3.633041e-04 -3.220354e-04 -1.840726e-04
          1.726387e-04 1.633249e-04 1.630656e-04 1.676033e-04 1.677188e-04 1.600355e-04
          5.528591e-05 -9.914778e-05 -1.157558e-04 -1.048856e-04 -1.064034e-04 -1.123781e-04
          -1.518427e-04 -1.782346e-04 -1.627177e-04 -1.393621e-04 -1.639098e-04 -1.735701e-04
          -1.737039e-04 -1.747610e-04 -1.721457e-04 -1.831764e-04 -1.816771e-04 -1.809230e-04
          -1.805307e-04 -1.743924e-04 -1.768122e-04 -1.784458e-04 -1.820446e-04 -1.844139e-04
          -1.716830e-04 -1.594760e-04 -1.555005e-04 -1.575846e-04 -1.584973e-04 -1.533994e-04
          -1.508241e-04 -1.697536e-04 -1.809197e-04 -1.287786e-04 -1.054723e-04 -9.850095e-05
          -1.010225e-04 -1.059227e-04 -1.078263e-04 -1.060099e-04 -1.035790e-04 -1.018156e-04
          2.088880e-04 2.618772e-04 2.822122e-04 2.532619e-04 2.193508e-04 1.567403e-04
          1.244772e-04 -4.183503e-05 -7.535106e-06 3.004415e-05 6.321180e-05 2.330167e-05
          -1.592730e-04 -2.462497e-04 -3.226993e-04 -3.893990e-04 -2.252406e-04 -1.661802e-04
          -1.675327e-04 -1.588338e-04 -2.178356e-04 -2.633460e-04 -3.096307e-04 -3.164947e-04
          -3.159374e-04 -2.656797e-04 -2.298505e-04 -2.145228e-04 -1.920904e-04 -1.772111e-04
          -2.879353e-04 -3.753051e-04 -3.870132e-04 -3.738861e-04 -3.354220e-04 -2.852365e-04
          -2.534724e-04 -1.886455e-04 -1.416434e-04 -3.159106e-04 5.634932e-05 1.373737e-04
          1.017699e-04 1.100949e-04 1.112855e-04 9.289080e-05 7.118051e-05 -1.402793e-05
          1.909194e-04 -8.265137e-05 -1.766854e-04 -4.243235e-05 8.119337e-05 2.595021e-04
          -8.339477e-05 7.451524e-05 5.710220e-05 1.580308e-04 4.923709e-05 5.167414e-05
          -1.538749e-04 -4.110922e-04 -8.774475e-05 3.021084e-04 -2.928640e-04 -3.485233e-04
          -3.162057e-04 -3.517010e-04 -1.560416e-04 -4.120298e-04 -2.756548e-04 -2.469977e-04
          -2.278665e-04 -8.819982e-06 -1.167072e-04 -1.920629e-04 -3.158969e-04 -4.322550e-04
          -1.252365e-04 1.075927e-04 1.612299e-04 1.015491e-04 -4.086081e-05 -1.966136e-04
          -3.123424e-04 -6.681458e-04 -8.469925e-04 4.651156e-04 -2.274385e-04 -2.034051e-04
          -3.143800e-05 -9.160625e-05 -1.183049e-04 -4.317900e-05 4.823671e-05 3.159834e-04
          -1.314071e-04 1.091166e-04 1.901046e-04 6.837504e-05 -4.595841e-05 -2.152678e-04
          1.122877e-04 5.991202e-05 1.376754e-04 1.063942e-04 2.130987e-04 1.723109e-04
          1.325871e-04 2.195328e-04 -8.879969e-05 -4.364045e-04 1.552043e-04 2.773651e-04
          2.571946e-04 2.905575e-04 9.797204e-05 2.070568e-04 6.748961e-05 4.126530e-05
          2.992137e-05 -4.326030e-05 6.836389e-05 1.341175e-04 2.397109e-04 3.300690e-04
          -8.158503e-06 -2.731975e-04 -3.252825e-04 -2.708205e-04 -1.384489e-04 6.669468e-06
          1.096652e-04 4.282483e-04 6.091803e-04 -4.577347e-04 3.674632e-04 4.402997e-04
          2.992319e-04 3.522518e-04 3.725765e-04 3.030685e-04 2.188026e-04 -4.553432e-05
          -2.124013e-04 -2.237781e-04 -2.316902e-04 -2.273243e-04 -2.183793e-04 -1.962677e-04
          -7.918799e-05 1.679243e-04 2.036035e-04 2.104330e-04 2.052603e-04 2.020536e-04
          1.712897e-04 1.424493e-04 1.430836e-04 1.458639e-04 1.587379e-04 2.003016e-04
          2.069309e-04 2.057178e-04 2.076008e-04 1.457808e-04 1.486994e-04 1.500054e-04
          1.536115e-04 2.221204e-04 2.243134e-04 2.197967e-04 2.121574e-04 1.998905e-04
          1.771018e-04 1.526655e-04 1.500694e-04 1.481825e-04 1.392808e-04 1.220956e-04
          1.099212e-04 1.064268e-04 1.154834e-04 1.913482e-04 1.614038e-04 1.759531e-04
          1.954841e-04 1.962092e-04 1.954710e-04 1.986140e-04 2.022792e-04 2.163300e-04
          -1.859934e-04 -2.319377e-04 -2.513012e-04 -2.301011e-04 -2.060422e-04 -1.627560e-04
          -9.736609e-05 1.595781e-04 1.878044e-04 2.025427e-04 1.827390e-04 1.788913e-04
          1.157900e-04 5.008497e-05 9.222556e-05 1.470099e-04 1.011449e-04 1.522442e-04
          1.644782e-04 1.582911e-04 1.769252e-04 5.384213e-05 7.211495e-05 7.688357e-05
          8.451516e-05 2.122977e-04 2.059300e-04 1.918985e-04 1.680397e-04 1.383236e-04
          1.367555e-04 1.270525e-04 1.304200e-04 1.209430e-04 9.462872e-05 5.979869e-05
          3.497862e-05 -1.318559e-05 -2.328568e-05 2.279684e-04 1.142428e-04 1.253536e-04
          1.635347e-04 1.558920e-04 1.513941e-04 1.639057e-04 1.793061e-04 2.285000e-04
          -1.609140e-04 -7.276918e-06 4.398205e-05 -3.456237e-05 -1.074223e-04 -2.131880e-04
          2.719361e-05 6.254300e-05 1.152029e-04 8.632495e-05 1.524152e-04 1.225236e-04
          7.210839e-05 1.095513e-04 -9.111471e-05 -3.122491e-04 1.166549e-04 2.483146e-04
          2.408288e-04 2.612744e-04 1.182383e-04 1.038381e-04 9.193478e-06 -7.774825e-06
          -1.042279e-05 3.585737e-05 1.209260e-04 1.624854e-04 2.276479e-04 2.764333e-04
          7.718442e-06 -2.073112e-04 -2.441673e-04 -2.092564e-04 -1.244468e-04 -3.119681e-05
          3.617751e-05 2.445886e-04 3.742274e-04 -2.772651e-04 2.604065e-04 2.990570e-04
          2.069542e-04 2.402397e-04 2.525549e-04 2.078534e-04 1.542635e-04 -1.093899e-05
          -2.657827e-05 -1.377320e-04 -1.763097e-04 -1.225200e-04 -7.160744e-05 5.093895e-06
          -9.488004e-05 5.300990e-05 4.513009e-05 7.010228e-05 2.232740e-05 2.152857e-05
          -7.599535e-05 -1.923033e-04 -6.391166e-05 9.582059e-05 -8.594451e-05 -4.559866e-05
          -2.619174e-05 -4.181923e-05 1.374950e-05 -1.886848e-04 -1.387942e-04 -1.272618e-04
          -1.140916e-04 8.454047e-05 5.693400e-05 2.585774e-05 -2.719291e-05 -8.492844e-05
          -2.224856e-05 1.847102e-05 3.608225e-05 1.184721e-05 -4.629970e-05 -1.096694e-04
          -1.548693e-04 -2.934514e-04 -3.498885e-04 2.144628e-04 -7.120323e-05 -7.899518e-05
          -1.236817e-05 -3.762059e-05 -4.899551e-05 -1.854429e-05 1.914536e-05 1.350210e-04
          -1.359848e-05 1.343223e-04 1.860438e-04 1.102384e-04 3.621202e-05 -7.801921e-05
          7.553800e-05 -2.165664e-05 1.783122e-05 -1.852130e-06 6.407054e-05 2.821530e-05
          -5.899170e-05 -4.513490e-05 -2.355666e-04 -4.399377e-04 -2.468041e-05 1.016955e-04
          9.401870e-05 1.137611e-04 -2.941508e-05 -5.523920e-05 -1.501779e-04 -1.668752e-04
          -1.689598e-04 -1.151180e-04 -3.055896e-05 1.023424e-05 7.343300e-05 1.206312e-04
          -1.422521e-04 -3.508092e-04 -3.849606e-04 -3.512980e-04 -2.659253e-04 -1.666915e-04
          -9.594732e-05 9.943204e-05 2.216069e-04 -3.939387e-04 1.741280e-04 2.199601e-04
          1.242389e-04 1.538562e-04 1.645995e-04 1.207449e-04 6.841718e-05 -9.789542e-05
          -9.768654e-06 -6.972219e-05 -9.003207e-05 -6.081780e-05 -3.327786e-05 8.015339e-06
          -5.438702e-05 9.022072e-06 -2.360536e-06 5.462449e-06 -2.136996e-05 -1.944914e-05
          -5.868952e-05 -1.129863e-04 -4.155255e-05 4.623968e-05 -5.159035e-05 -3.013323e-05
          -1.980307e-05 -2.851370e-05 1.460602e-07 -1.100443e-04 -8.243928e-05 -7.616223e-05
          -6.899844e-05 3.963286e-05 2.518245e-05 8.559543e-06 -2.000945e-05 -5.103923e-05
          -1.790035e-05 3.860966e-06 1.356194e-05 3.097879e-07 -3.121659e-05 -6.488331e-05
          -8.843561e-05 -1.637672e-04 -1.950232e-04 1.061401e-04 -6.117850e-05 -7.443810e-05
          -4.064036e-05 -5.470737e-05 -6.073890e-05 -4.410093e-05 -2.349098e-05 4.134024e-05
          9.106933e-06 7.554379e-05 1.008288e-04 6.810164e-05 3.586455e-05 -1.397563e-05
          1.883727e-05 -9.997583e-05 -1.170544e-04 -1.542519e-04 -1.300042e-04 -1.319703e-04
          -9.070143e-05 -3.350859e-05 -1.075422e-04 -1.925571e-04 -1.710390e-05 2.601880e-05
          2.059806e-05 2.823469e-05 -3.703965e-05 -3.273188e-05 -6.997598e-05 -7.701214e-05
          -7.866014e-05 -6.944681e-05 -3.277450e-05 -1.386898e-05 1.514195e-05 3.867971e-05
          -6.993827e-05 -1.540213e-04 -1.676830e-04 -1.534592e-04 -1.167924e-04 -7.160628e-05
          -3.706667e-05 4.743170e-05 9.543154e-05 -2.058434e-04 -2.973989e-05 -5.487430e-05
          -1.070751e-04 -9.540385e-05 -8.969633e-05 -1.081484e-04 -1.300660e-04 -1.923107e-04
          1.347899e-04 1.926937e-04 2.175968e-04 1.895034e-04 1.584697e-04 1.051129e-04
          5.171424e-05 -1.960269e-04 -2.354496e-04 -2.733572e-04 -2.525979e-04 -2.543105e-04
          -2.171040e-04 -1.645228e-04 -2.217361e-04 -2.855314e-04 -1.348142e-04 -1.028157e-04
          -1.087926e-04 -1.026081e-04 -1.647364e-04 -1.654804e-04 -1.989820e-04 -2.051980e-04
          -2.064286e-04 -1.957444e-04 -1.618893e-04 -1.445213e-04 -1.185872e-04 -9.706516e-05
          -1.918033e-04 -2.627847e-04 -2.728497e-04 -2.608165e-04 -2.264129e-04 -1.787124e-04
          -1.423525e-04 -7.462347e-05 -3.787483e-05 -3.005645e-04 -1.379194e-04 -1.722400e-04
          -2.277955e-04 -2.204131e-04 -2.160242e-04 -2.322814e-04 -2.513162e-04 -3.062967e-04
          2.058911e-05 -1.965451e-05 -3.144790e-05 -9.592076e-06 1.117747e-05 4.295662e-05
          -3.889319e-05 -9.207545e-05 -1.395827e-04 -1.645071e-04 -1.881300e-04 -1.650480e-04
          -6.587434e-05 -2.201277e-05 4.140368e-05 1.050602e-04 -1.039369e-05 -4.977755e-05
          -4.891292e-05 -5.569288e-05 -2.164939e-05 -1.380802e-05 1.627342e-05 2.123742e-05
          2.196271e-05 8.652449e-06 -1.307315e-05 -2.355596e-05 -4.041323e-05 -5.240157e-05
          1.948899e-05 7.819531e-05 8.875117e-05 7.867793e-05 5.412129e-05 2.878409e-05
          1.329196e-05 -4.294217e-05 -8.118468e-05 6.686643e-05 -1.629569e-04 -2.234314e-04
          -2.080468e-04 -2.181427e-04 -2.203851e-04 -2.072949e-04 -1.914522e-04 -1.332920e-04
          -1.855703e-04 -1.837854e-04 -1.850776e-04 -1.833964e-04 -1.758803e-04 -1.540311e-04
          -7.214852e-05 3.104226e-05 1.017176e-05 -3.059495e-05 -3.849284e-05 -5.800705e-06
          1.812138e-04 2.979735e-04 3.069321e-04 2.951607e-04 2.389345e-04 1.791611e-04
          1.729899e-04 1.723268e-04 1.972748e-04 3.108728e-04 3.280945e-04 3.291557e-04
          3.235910e-04 2.086818e-04 1.912898e-04 1.912833e-04 1.940455e-04 2.045102e-04
          2.656651e-04 3.166904e-04 3.186659e-04 3.178419e-04 3.096209e-04 2.930365e-04
          2.845383e-04 2.890144e-04 2.753923e-04 1.910820e-04 1.707532e-06 -6.011132e-05
          -5.671081e-05 -5.296650e-05 -4.921204e-05 -4.651749e-05 -4.407654e-05 -2.101065e-05
          -2.161615e-04 -8.077637e-05 -3.642710e-05 -1.020111e-04 -1.586241e-04 -2.334515e-04
          4.484750e-06 3.039280e-05 4.459736e-05 -1.500744e-05 3.635258e-05 4.776508e-05
          2.211056e-04 3.922215e-04 2.328825e-04 3.069092e-05 2.940662e-04 2.918823e-04
          2.732732e-04 2.909882e-04 2.107916e-04 3.977862e-04 3.385088e-04 3.249135e-04
          3.124439e-04 1.423007e-04 1.852330e-04 2.219525e-04 2.840385e-04 3.463591e-04
          2.282353e-04 1.401913e-04 1.142263e-04 1.434868e-04 2.092261e-04 2.751341e-04
          3.252326e-04 5.043646e-04 5.874616e-04 -9.531868e-05 1.699509e-04 1.443814e-04
          6.692573e-05 9.958201e-05 1.145632e-04 7.869493e-05 3.445824e-05 -8.936596e-05
          2.136726e-05 -1.042881e-04 -1.484678e-04 -8.581707e-05 -2.608084e-05 6.416791e-05
          -6.290303e-05 4.984862e-05 3.579032e-05 6.891357e-05 1.617665e-05 2.885680e-05
          3.839977e-08 -7.752310e-05 7.471574e-05 2.499334e-04 -4.688631e-05 -9.595006e-05
          -8.349158e-05 -1.001581e-04 3.817213e-07 -7.346909e-05 -4.103400e-06 9.371398e-06
          1.622989e-05 7.198095e-05 1.534249e-05 -1.951664e-05 -7.541540e-05 -1.252337e-04
          4.059856e-05 1.682615e-04 1.936868e-04 1.658666e-04 9.709971e-05 1.896673e-05
          -3.777603e-05 -2.003556e-04 -2.882325e-04 2.866111e-04 -9.959314e-05 -1.088046e-04
          -2.761162e-05 -5.375978e-05 -6.482729e-05 -2.922436e-05 1.385709e-05 1.453471e-04
          3.958770e-05 2.802359e-04 3.639804e-04 2.421199e-04 1.228918e-04 -6.163469e-05
          1.695730e-04 -4.526630e-05 1.675635e-05 -7.039035e-06 1.021881e-04 5.325092e-05
          -3.133735e-05 2.981541e-05 -2.746657e-04 -6.114165e-04 -1.380612e-05 1.108220e-04
          9.016941e-05 1.232965e-04 -7.732102e-05 1.218097e-05 -1.321139e-04 -1.589738e-04
          -1.691405e-04 -2.256112e-04 -1.096907e-04 -4.301022e-05 6.337095e-05 1.532926e-04
          -1.932910e-04 -4.627807e-04 -5.135151e-04 -4.590299e-04 -3.221425e-04 -1.652009e-04
          -5.452851e-05 2.578597e-04 4.360200e-04 -6.161585e-04 2.679767e-04 3.481657e-04
          1.975698e-04 2.476817e-04 2.664828e-04 1.959262e-04 1.109311e-04 -1.614104e-04
          1.541971e-04 1.472778e-04 1.494861e-04 1.530880e-04 1.515283e-04 1.416800e-04
          1.957869e-05 -1.660979e-04 -2.076151e-04 -2.236286e-04 -2.290744e-04 -2.307714e-04
          -2.461822e-04 -2.577741e-04 -2.394811e-04 -2.115059e-04 -1.910793e-04 -1.608342e-04
          -1.580322e-04 -1.605147e-04 -1.798842e-04 -2.582038e-04 -2.603055e-04 -2.598630e-04
          -2.554533e-04 -1.741348e-04 -1.631175e-04 -1.637687e-04 -1.674936e-04 -1.755752e-04
          -2.084440e-04 -2.337416e-04 -2.320707e-04 -2.341569e-04 -2.336814e-04 -2.234068e-04
          -2.145345e-04 -2.295725e-04 -2.320681e-04 -1.780905e-04 -1.792434e-04 -2.093355e-04
          -2.239269e-04 -2.306626e-04 -2.327508e-04 -2.312352e-04 -2.285458e-04 -2.189456e-04
          1.820360e-05 3.568809e-05 4.661220e-05 3.978216e-05 3.185092e-05 1.902283e-05
          -4.249810e-05 -2.054203e-04 -2.768278e-04 -3.445180e-04 -3.490816e-04 -3.287497e-04
          -2.012859e-04 -1.134172e-04 -1.133483e-04 -1.191367e-04 -5.069801e-05 -2.071913e-05
          -2.163866e-05 -2.259317e-05 -5.998235e-05 -1.030067e-04 -1.086137e-04 -1.098762e-04
          -1.076035e-04 -5.297816e-05 -3.339451e-05 -2.745423e-05 -2.028707e-05 -1.709950e-05
          -7.300983e-05 -1.154966e-04 -1.184488e-04 -1.162971e-04 -1.082454e-04 -9.138940e-05
          -7.363812e-05 -5.535627e-05 -4.500416e-05 -1.417440e-04 -2.171041e-04 -3.130823e-04
          -3.483372e-04 -3.497316e-04 -3.475144e-04 -3.505542e-04 -3.534643e-04 -3.458784e-04
          -2.488804e-04 -2.438812e-04 -2.430319e-04 -2.427075e-04 -2.355553e-04 -2.121318e-04
          -1.211532e-04 -7.533788e-06 -4.913875e-05 -1.183602e-04 -1.305543e-04 -9.095635e-05
          1.353124e-04 2.765258e-04 2.863345e-04 2.749389e-04 2.602259e-04 2.361586e-04
          2.328010e-04 2.310432e-04 2.366235e-04 2.951917e-04 3.101227e-04 3.110794e-04
          3.084753e-04 2.573350e-04 2.515198e-04 2.524707e-04 2.550628e-04 2.611872e-04
          2.818424e-04 2.988658e-04 2.984067e-04 2.977795e-04 2.900941e-04 2.757363e-04
          2.714651e-04 2.822093e-04 2.778283e-04 1.851227e-04 -4.464937e-05 -1.452240e-04
          -1.514734e-04 -1.485544e-04 -1.443248e-04 -1.418443e-04 -1.391662e-04 -1.073116e-04
          -3.565817e-04 -3.661833e-04 -3.728756e-04 -3.662777e-04 -3.506606e-04 -3.102057e-04
          -1.612700e-04 1.014564e-04 8.510261e-05 2.860357e-05 1.138260e-05 4.682351e-05
          2.361991e-04 3.451600e-04 3.632848e-04 3.641066e-04 3.372626e-04 3.336035e-04
          3.349212e-04 3.317482e-04 3.456633e-04 3.644555e-04 3.844649e-04 3.869629e-04
          3.867042e-04 3.771324e-04 3.686867e-04 3.647172e-04 3.593823e-04 3.553947e-04