<?xml version="1.0"?>
<VTKFile type="RectilinearGrid" version="0.1" byte_order="LittleEndian">
  <RectilinearGrid WholeExtent="0 47 0 47 0 47">
    <Piece Extent="0 47 0 47 0 47">
      <PointData Scalars="concentration">
        <DataArray type="Float32" Name="concentration" NumberOfComponents="1" format="ascii">
          3.054353e-03 3.060531e-03 3.074356e-03 3.088217e-03 3.051009e-03 2.883987e-03
          1.672434e-03 -7.513733e-04 -7.239294e-04 -2.600499e-04 -1.548451e-04 -1.762535e-04
          -2.096292e-04 -1.497873e-04 -9.801541e-05 -1.056323e-04 -1.427081e-03 -2.835627e-03
          -2.973995e-03 -2.946834e-03 -2.438298e-03 -2.743332e-04 -1.779629e-04 -1.827134e-04
          -3.014872e-04 -2.729770e-03 -3.080432e-03 -3.065851e-03 -3.000220e-03 -2.763079e-03
          -1.394552e-03 -1.982744e-04 -1.021356e-04 -9.615691e-05 -6.558495e-05 -1.295241e-05
          -2.770326e-05 -1.766985e-04 -5.422164e-04 -1.175455e-03 -6.501517e-04 -1.169466e-04
          -6.325675e-05 -4.907512e-05 -4.603001e-05 -5.585714e-05 -7.183984e-05 -3.045138e-04
          2.537854e-03 2.544740e-03 2.562834e-03 2.575743e-03 2.544971e-03 2.406750e-03
          1.316035e-03 -8.610705e-04 -9.286220e-04 -6.248738e-04 -5.521173e-04 -5.412776e-04
          -4.073270e-04 -2.560960e-04 -1.891405e-04 -1.760306e-04 -1.233850e-03 -2.372126e-03
          -2.486081e-03 -2.467385e-03 -2.075532e-03 -3.449847e-04 -2.604979e-04 -2.636300e-04
          -3.583736e-04 -2.296264e-03 -2.571875e-03 -2.558087e-03 -2.503640e-03 -2.310888e-03
          -1.218976e-03 -2.595638e-04 -1.796312e-04 -1.765069e-04 -1.525175e-04 -1.016286e-04
          -1.015138e-04 -2.272410e-04 -5.310664e-04 -1.087784e-03 -8.164608e-04 -4.977145e-04
          -4.834049e-04 -4.773944e-04 -4.735507e-04 -4.795822e-04 -4.897454e-04 -6.509442e-04
          1.437157e-03 1.644488e-03 1.731408e-03 1.641404e-03 1.530569e-03 1.312202e-03
          8.077926e-04 -8.076744e-04 -9.179310e-04 -8.773367e-04 -7.653165e-04 -7.380243e-04
          -3.778599e-04 -1.602602e-05 -1.922278e-04 -4.518291e-04 -6.158516e-04 -1.233784e-03
          -1.325582e-03 -1.291438e-03 -1.227792e-03 -5.781422e-05 -1.048612e-04 -1.271632e-04
          -1.949661e-04 -1.452891e-03 -1.525149e-03 -1.459534e-03 -1.335496e-03 -1.137043e-03
          -7.452205e-04 -3.686121e-04 -3.593536e-04 -3.150635e-04 -1.956085e-04 -4.078580e-05
          5.728539e-05 2.401770e-04 1.877587e-04 -1.137827e-03 -5.908315e-04 -5.214551e-04
          -6.682745e-04 -6.262616e-04 -6.033837e-04 -6.607978e-04 -7.318611e-04 -1.000944e-03
          6.970373e-04 5.300635e-04 4.872441e-04 5.835003e-04 6.647204e-04 7.675837e-04
          1.302766e-04 -6.848703e-04 -9.381802e-04 -1.001842e-03 -1.089561e-03 -9.739650e-04
          -4.336414e-04 -1.550531e-04 1.391399e-04 4.158601e-04 -3.331090e-04 -7.849063e-04
          -8.105285e-04 -8.361333e-04 -6.008078e-04 -1.355723e-04 1.725639e-05 3.781126e-05
          1.712369e-05 -5.191055e-04 -6.774186e-04 -7.178031e-04 -7.746252e-04 -7.760277e-04
          -2.033335e-04 2.825986e-04 3.474793e-04 3.051076e-04 2.059311e-04 1.118678e-04
          4.970131e-05 -2.189334e-04 -4.592074e-04 -9.300956e-07 -9.912419e-04 -1.220254e-03
          -1.161837e-03 -1.204480e-03 -1.211717e-03 -1.156916e-03 -1.091224e-03 -8.718186e-04
          6.535587e-04 8.216416e-04 8.957409e-04 8.268852e-04 7.516066e-04 6.198013e-04
          3.213452e-04 -8.219861e-04 -1.045108e-03 -1.199409e-03 -1.146781e-03 -1.049866e-03
          -3.437540e-04 1.992580e-04 9.471214e-05 -1.009960e-04 -1.366813e-04 -5.382249e-04
          -6.052191e-04 -5.859970e-04 -5.862474e-04 2.098213e-04 1.903476e-04 1.753027e-04
          1.296940e-04 -6.998699e-04 -7.290585e-04 -6.763973e-04 -5.806186e-04 -4.362832e-04
          -2.245183e-04 -9.214623e-06 -7.772527e-06 2.364999e-05 1.041204e-04 2.109350e-04
          2.945527e-04 4.551621e-04 4.286172e-04 -7.045810e-04 -7.414332e-04 -9.553515e-04
          -1.108438e-03 -1.078925e-03 -1.054926e-03 -1.093840e-03 -1.141976e-03 -1.269125e-03
          1.127698e-03 1.303199e-03 1.380592e-03 1.310510e-03 1.226511e-03 1.064394e-03
          5.984996e-04 -9.024407e-04 -1.106242e-03 -1.176950e-03 -1.102803e-03 -1.013298e-03
          -3.297606e-04 2.149349e-04 1.069987e-04 -1.028762e-04 -3.414575e-04 -9.714793e-04
          -1.061482e-03 -1.036452e-03 -9.551845e-04 2.036887e-04 1.958938e-04 1.792832e-04
          1.136052e-04 -1.121756e-03 -1.206946e-03 -1.150460e-03 -1.041189e-03 -8.554949e-04
          -4.255036e-04 -1.938858e-05 -4.020703e-06 3.009977e-05 1.188673e-04 2.361646e-04
          3.179650e-04 4.640114e-04 3.836080e-04 -8.785246e-04 -7.927145e-04 -9.036274e-04
          -1.047231e-03 -1.012989e-03 -9.879783e-04 -1.030542e-03 -1.083851e-03 -1.259098e-03
          1.838006e-03 1.630092e-03 1.574800e-03 1.697251e-03 1.785432e-03 1.857714e-03
          7.587980e-04 -8.604491e-04 -1.076416e-03 -9.272877e-04 -9.886939e-04 -8.850240e-04
          -4.131284e-04 -1.674900e-04 1.899014e-04 5.155698e-04 -8.500242e-04 -1.863841e-03
          -1.938009e-03 -1.957663e-03 -1.483903e-03 -1.979085e-04 1.447614e-05 3.763068e-05
          -2.727928e-05 -1.494212e-03 -1.810736e-03 -1.858229e-03 -1.909231e-03 -1.836107e-03
          -6.717381e-04 3.236593e-04 4.334046e-04 3.844260e-04 2.731910e-04 1.683715e-04
          7.607629e-05 -3.030575e-04 -7.115516e-04 -2.896501e-04 -1.167371e-03 -1.157879e-03
          -1.040092e-03 -1.084010e-03 -1.094062e-03 -1.031391e-03 -9.579121e-04 -7.912468e-04
          2.158407e-03 2.480488e-03 2.607675e-03 2.464346e-03 2.291309e-03 1.952652e-03
          1.305701e-03 -9.384270e-04 -9.947408e-04 -8.396849e-04 -6.486303e-04 -6.446856e-04
          -3.029953e-04 1.212050e-04 -1.878935e-04 -6.177714e-04 -8.738427e-04 -1.826788e-03
          -1.966385e-03 -1.908848e-03 -1.790322e-03 4.034705e-05 -4.390102e-05 -7.975625e-05
          -1.862570e-04 -2.160738e-03 -2.279992e-03 -2.179993e-03 -1.988192e-03 -1.681354e-03
          -1.064460e-03 -4.777193e-04 -4.669330e-04 -3.953749e-04 -2.068723e-04 2.598630e-05
          1.649918e-04 4.585987e-04 3.909171e-04 -1.615142e-03 -5.494372e-04 -2.955058e-04
          -4.888421e-04 -4.165867e-04 -3.828928e-04 -4.754227e-04 -5.902708e-04 -1.046361e-03
          2.060134e-03 2.022860e-03 2.023522e-03 2.057302e-03 2.055351e-03 1.979455e-03
          1.032386e-03 -7.483409e-04 -8.391147e-04 -6.081905e-04 -5.724421e-04 -5.406443e-04
          -3.348540e-04 -1.707666e-04 -5.241332e-05 2.096678e-05 -9.751671e-04 -1.954423e-03
          -2.046888e-03 -2.038320e-03 -1.675204e-03 -2.354497e-04 -1.335656e-04 -1.308324e-04
          -2.084941e-04 -1.824782e-03 -2.076766e-03 -2.077165e-03 -2.050486e-03 -1.904618e-03
          -9.257944e-04 -7.165010e-05 4.646476e-06 -3.287707e-06 -1.057967e-05 4.008581e-07
          -1.935488e-05 -1.804150e-04 -4.693914e-04 -7.680057e-04 -7.835266e-04 -5.728888e-04
          -5.386395e-04 -5.430449e-04 -5.420290e-04 -5.331091e-04 -5.247923e-04 -5.971760e-04
          1.197656e-03 1.219136e-03 1.235807e-03 1.235264e-03 1.214771e-03 1.141961e-03
          6.130560e-04 -5.115462e-04 -5.839284e-04 -4.810051e-04 -4.458997e-04 -4.197287e-04
          -2.214952e-04 -5.580368e-05 -3.048850e-05 -4.436146e-05 -5.401389e-04 -1.113214e-03
          -1.173638e-03 -1.163769e-03 -9.830691e-04 -9.071112e-05 -4.973409e-05 -5.239154e-05
          -1.012827e-04 -1.090902e-03 -1.222002e-03 -1.209904e-03 -1.174226e-03 -1.068982e-03
          -5.388620e-04 -6.978449e-05 -3.242766e-05 -2.819629e-05 -1.055712e-05 2.165195e-05
          3.060282e-05 -9.801733e-06 -1.551529e-04 -5.517087e-04 -4.945631e-04 -4.018547e-04
          -4.151706e-04 -4.094633e-04 -4.041190e-04 -4.100987e-04 -4.188498e-04 -4.967364e-04
          -1.965350e-04 -1.666491e-04 -1.555961e-04 -1.682710e-04 -1.763618e-04 -1.791715e-04
          -1.006573e-04 -5.964739e-05 -1.026733e-04 -1.764803e-04 -1.775187e-04 -1.502022e-04
          2.535303e-05 1.464194e-04 1.248017e-04 8.595297e-05 1.709996e-04 1.975178e-04
          1.955319e-04 1.966183e-04 1.633341e-04 1.618883e-04 1.552047e-04 1.531988e-04
          1.531847e-04 1.697054e-04 1.876021e-04 1.957006e-04 2.081354e-04 2.172841e-04
          1.614671e-04 1.169028e-04 1.097569e-04 1.146259e-04 1.240951e-04 1.331277e-04
          1.459784e-04 1.886191e-04 2.103721e-04 3.798612e-05 -6.035667e-05 -1.546209e-04
          -1.835691e-04 -1.780589e-04 -1.728168e-04 -1.782106e-04 -1.849277e-04 -1.829819e-04
          -1.094447e-03 -1.099855e-03 -1.114192e-03 -1.116485e-03 -1.097029e-03 -1.024641e-03
          -4.877793e-04 5.334602e-04 6.108108e-04 5.293010e-04 5.059119e-04 5.096340e-04
          5.033737e-04 4.730133e-04 4.416423e-04 4.148495e-04 7.076485e-04 1.038982e-03
          1.074600e-03 1.069717e-03 9.775120e-04 5.058164e-04 4.891463e-04 4.909284e-04
          5.172605e-04 1.052880e-03 1.122741e-03 1.115610e-03 1.097020e-03 1.038734e-03
          7.389456e-04 4.682152e-04 4.416853e-04 4.404722e-04 4.237216e-04 3.820205e-04
          3.628307e-04 4.102809e-04 5.059799e-04 6.691753e-04 5.180525e-04 4.444706e-04
          4.687547e-04 4.739723e-04 4.749517e-04 4.788316e-04 4.833108e-04 5.406328e-04
          -1.266414e-03 -1.298109e-03 -1.333021e-03 -1.327041e-03 -1.294439e-03 -1.196141e-03
          -4.620023e-04 1.007276e-03 1.240322e-03 1.283050e-03 1.270063e-03 1.228512e-03
          9.436454e-04 7.232261e-04 6.747235e-04 6.446334e-04 8.780872e-04 1.213901e-03
          1.256956e-03 1.254427e-03 1.209944e-03 7.382981e-04 7.224473e-04 7.255659e-04
          7.520088e-04 1.276340e-03 1.325235e-03 1.308066e-03 1.276077e-03 1.204510e-03
          9.471745e-04 7.012791e-04 6.743616e-04 6.709958e-04 6.420569e-04 5.693964e-04
          5.179978e-04 5.476330e-04 6.460443e-04 9.958267e-04 1.027690e-03 1.141454e-03
          1.231927e-03 1.242240e-03 1.238969e-03 1.246230e-03 1.253969e-03 1.291874e-03
          -1.107565e-03 -1.078117e-03 -1.093585e-03 -1.121013e-03 -1.124481e-03 -1.089464e-03
          -3.147935e-04 1.089382e-03 1.397462e-03 1.505666e-03 1.534813e-03 1.447031e-03
          9.511824e-04 6.298073e-04 4.849050e-04 3.630721e-04 7.446068e-04 1.109516e-03
          1.148063e-03 1.157047e-03 1.069253e-03 6.236421e-04 5.594319e-04 5.544557e-04
          5.776086e-04 1.075025e-03 1.150873e-03 1.150513e-03 1.145806e-03 1.097591e-03
          7.584783e-04 4.486009e-04 4.086925e-04 4.210944e-04 4.337479e-04 4.085784e-04
          3.842911e-04 4.920579e-04 6.395153e-04 7.676554e-04 1.230114e-03 1.471460e-03
          1.537013e-03 1.561569e-03 1.560439e-03 1.546506e-03 1.528740e-03 1.462474e-03
          -6.656785e-04 -7.630174e-04 -8.185643e-04 -7.840195e-04 -7.387237e-04 -6.495072e-04
          -1.992117e-04 9.922072e-04 1.288747e-03 1.487320e-03 1.476163e-03 1.370071e-03
          6.737828e-04 1.735123e-04 1.803445e-04 2.513666e-04 3.178578e-04 6.113392e-04
          6.599359e-04 6.540610e-04 6.661279e-04 1.518615e-04 1.454021e-04 1.526482e-04
          1.816260e-04 7.158346e-04 7.343390e-04 7.005397e-04 6.412946e-04 5.469689e-04
          3.883683e-04 2.229375e-04 2.129620e-04 1.984205e-04 1.532606e-04 7.412219e-05
          4.680910e-06 -6.603963e-05 -1.647153e-05 7.297241e-04 1.013463e-03 1.320558e-03
          1.459551e-03 1.453260e-03 1.437344e-03 1.455921e-03 1.478123e-03 1.509470e-03
          -6.013789e-04 -5.298257e-04 -5.242777e-04 -5.751149e-04 -6.148075e-04 -6.591569e-04
          -8.984721e-05 8.786840e-04 1.194015e-03 1.357910e-03 1.420168e-03 1.282284e-03
          5.404176e-04 9.182592e-05 -1.090407e-04 -2.654497e-04 2.447517e-04 6.485219e-04
          6.843040e-04 7.006594e-04 5.568690e-04 5.983352e-05 -4.992145e-05 -6.141127e-05
          -3.723500e-05 5.072816e-04 6.157915e-04 6.292185e-04 6.438613e-04 6.091056e-04
          1.801327e-04 -1.961564e-04 -2.420807e-04 -2.188497e-04 -1.668374e-04 -1.302875e-04
          -1.165134e-04 3.023534e-05 2.076201e-04 2.238765e-04 1.112780e-03 1.448671e-03
          1.471721e-03 1.497901e-03 1.494841e-03 1.464143e-03 1.427240e-03 1.273318e-03
          -1.063490e-03 -1.137960e-03 -1.179861e-03 -1.156576e-03 -1.117332e-03 -1.022868e-03
          -4.933254e-04 8.050573e-04 9.968532e-04 1.035558e-03 1.003020e-03 9.275730e-04
          4.099574e-04 2.133287e-05 2.170763e-05 8.729941e-05 4.375528e-04 9.743960e-04
          1.041408e-03 1.030321e-03 9.174575e-04 3.153428e-05 3.280425e-06 9.620452e-06
          5.877866e-05 1.018083e-03 1.114233e-03 1.086473e-03 1.027744e-03 9.037536e-04
          4.713326e-04 7.566890e-05 4.804856e-05 3.546785e-05 -2.645935e-06 -6.519260e-05
          -1.073789e-04 -1.323463e-04 -1.665200e-05 6.887083e-04 7.955090e-04 8.931350e-04
          9.749127e-04 9.640572e-04 9.508370e-04 9.667611e-04 9.870493e-04 1.062163e-03
          -1.507427e-03 -1.546773e-03 -1.569664e-03 -1.557738e-03 -1.520574e-03 -1.408126e-03
          -8.046438e-04 4.862110e-04 5.019036e-04 3.136341e-04 2.521616e-04 2.641847e-04
          2.619633e-04 2.049005e-04 2.166901e-04 2.585620e-04 7.649903e-04 1.386464e-03
          1.453803e-03 1.437505e-03 1.246465e-03 2.632157e-04 2.410353e-04 2.471116e-04
          3.020965e-04 1.399962e-03 1.537477e-03 1.519840e-03 1.473523e-03 1.351631e-03
          7.888937e-04 2.888595e-04 2.512053e-04 2.407750e-04 2.044713e-04 1.481585e-04
          1.306193e-04 1.569824e-04 3.009005e-04 7.535440e-04 4.026562e-04 1.807711e-04
          1.930834e-04 1.824626e-04 1.787817e-04 1.937340e-04 2.131562e-04 3.550218e-04
          -1.614829e-03 -1.339712e-03 -1.252929e-03 -1.395670e-03 -1.503815e-03 -1.606329e-03
          -6.631779e-04 3.566768e-04 3.917917e-04 1.015416e-04 1.682321e-04 1.689128e-04
          3.559579e-04 5.668611e-04 2.066481e-04 -1.945324e-04 9.956639e-04 1.679402e-03
          1.709327e-03 1.734305e-03 1.316023e-03 6.211611e-04 4.383625e-04 4.113139e-04
          4.442296e-04 1.293333e-03 1.555898e-03 1.625431e-03 1.721602e-03 1.733935e-03
          8.174638e-04 5.028738e-05 -4.796512e-05 1.048218e-05 1.411365e-04 2.708807e-04
          3.900646e-04 8.215557e-04 1.169522e-03 1.265249e-04 6.283670e-04 3.972399e-04
          2.088457e-04 2.657671e-04 2.919020e-04 2.195856e-04 1.329734e-04 -4.188751e-05
          -1.539226e-03 -1.652328e-03 -1.701176e-03 -1.649666e-03 -1.571935e-03 -1.393972e-03
          -8.575747e-04 4.764242e-04 4.537300e-04 2.557705e-04 1.573838e-04 2.053978e-04
          3.504776e-04 3.521072e-04 4.677475e-04 6.094645e-04 8.621761e-04 1.372496e-03
          1.438828e-03 1.412163e-03 1.310229e-03 4.210850e-04 4.571093e-04 4.721124e-04
          5.239553e-04 1.510185e-03 1.592641e-03 1.554730e-03 1.478684e-03 1.341181e-03
          9.574548e-04 6.025653e-04 5.846132e-04 5.567212e-04 4.737056e-04 3.608807e-04
          3.045224e-04 2.314233e-04 3.013103e-04 1.013107e-03 2.776393e-04 -2.987971e-07
          5.999644e-05 3.577821e-05 2.861269e-05 6.700838e-05 1.142417e-04 3.505297e-04
          -1.838515e-03 -1.849722e-03 -1.876554e-03 -1.879217e-03 -1.843759e-03 -1.717267e-03
          -7.906401e-04 9.624628e-04 1.113170e-03 9.971685e-04 9.608175e-04 9.679517e-04
          9.634432e-04 9.163732e-04 8.628014e-04 8.116122e-04 1.246646e-03 1.750875e-03
          1.806144e-03 1.799122e-03 1.671238e-03 9.687186e-04 9.474747e-04 9.507746e-04
          9.900631e-04 1.791186e-03 1.891679e-03 1.878737e-03 1.848485e-03 1.758290e-03
          1.312727e-03 9.064997e-04 8.645350e-04 8.624605e-04 8.316503e-04 7.541982e-04
          7.144886e-04 7.904033e-04 9.393204e-04 1.197051e-03 9.388012e-04 8.429618e-04
          8.961739e-04 9.074716e-04 9.096051e-04 9.166197e-04 9.245121e-04 1.016374e-03
          -2.075648e-03 -2.025408e-03 -2.041096e-03 -2.077325e-03 -2.066709e-03 -1.968166e-03
          -7.562829e-04 1.343269e-03 1.625683e-03 1.575540e-03 1.579449e-03 1.554775e-03
          1.418840e-03 1.315515e-03 1.151269e-03 9.763335e-04 1.527789e-03 2.037428e-03
          2.087468e-03 2.093141e-03 1.952136e-03 1.355776e-03 1.297620e-03 1.293684e-03
          1.325679e-03 2.021824e-03 2.133092e-03 2.134620e-03 2.131359e-03 2.068111e-03
          1.580503e-03 1.137555e-03 1.079578e-03 1.093648e-03 1.094212e-03 1.034567e-03
          1.001066e-03 1.170723e-03 1.372773e-03 1.369347e-03 1.435373e-03 1.477299e-03
          1.534770e-03 1.569405e-03 1.576909e-03 1.564434e-03 1.547779e-03 1.546559e-03
          -2.028844e-03 -2.304566e-03 -2.431094e-03 -2.303990e-03 -2.137929e-03 -1.804824e-03
          -9.698738e-04 1.338157e-03 1.532660e-03 1.521105e-03 1.379009e-03 1.401552e-03
          1.270268e-03 1.014782e-03 1.259204e-03 1.552379e-03 1.369760e-03 1.785998e-03
          1.870794e-03 1.830880e-03 1.927104e-03 1.073930e-03 1.196635e-03 1.228301e-03
          1.281335e-03 2.197019e-03 2.174163e-03 2.085909e-03 1.936121e-03 1.738565e-03
          1.640595e-03 1.496192e-03 1.503647e-03 1.444321e-03 1.265683e-03 1.007988e-03
          8.348000e-04 5.811452e-04 5.586331e-04 2.043899e-03 1.020090e-03 9.664418e-04
          1.216865e-03 1.179559e-03 1.158852e-03 1.240101e-03 1.337226e-03 1.696421e-03
          -1.929340e-03 -1.690776e-03 -1.630299e-03 -1.757786e-03 -1.840105e-03 -1.889362e-03
          -6.860637e-04 8.850431e-04 1.065929e-03 8.790653e-04 9.465992e-04 9.303372e-04
          9.927284e-04 1.104846e-03 7.477411e-04 3.461266e-04 1.378370e-03 1.988293e-03
          2.019238e-03 2.045077e-03 1.715914e-03 1.150930e-03 9.921140e-04 9.687198e-04
          9.951390e-04 1.696468e-03 1.911153e-03 1.967252e-03 2.047869e-03 2.055156e-03
          1.273111e-03 6.068125e-04 5.133345e-04 5.665313e-04 6.713921e-04 7.469465e-04
          8.189224e-04 1.220185e-03 1.546406e-03 6.616372e-04 1.156770e-03 1.073992e-03
          9.668674e-04 1.030819e-03 1.054939e-03 9.913176e-04 9.137832e-04 7.474645e-04
          -8.858838e-04 -9.012643e-04 -9.144807e-04 -9.103807e-04 -8.885564e-04 -8.207231e-04
          -4.249483e-04 3.566685e-04 3.867242e-04 2.954206e-04 2.666383e-04 2.819751e-04
          3.382017e-04 3.468284e-04 3.439271e-04 3.441527e-04 5.611917e-04 8.293259e-04
          8.586583e-04 8.519755e-04 7.787325e-04 3.789019e-04 3.744230e-04 3.775442e-04
          4.000245e-04 8.534695e-04 9.084794e-04 9.000543e-04 8.800592e-04 8.280816e-04
          5.919571e-04 3.786298e-04 3.598001e-04 3.556477e-04 3.349580e-04 2.957509e-04
          2.785890e-04 3.011861e-04 3.690705e-04 5.377090e-04 3.160333e-04 2.120775e-04
          2.294364e-04 2.295721e-04 2.298657e-04 2.369655e-04 2.456997e-04 3.156471e-04
          1.459971e-04 8.597975e-05 6.506098e-05 9.389065e-05 1.187423e-04 1.501483e-04
          4.984216e-05 3.832639e-05 5.548271e-05 1.106742e-04 9.384431e-05 8.398639e-05
          -1.652450e-05 -1.050259e-04 -3.954617e-05 4.229528e-05 -1.221364e-04 -1.700687e-04
          -1.662923e-04 -1.723956e-04 -1.137927e-04 -1.130524e-04 -8.408224e-05 -7.825436e-05
          -7.732899e-05 -9.536535e-05 -1.287067e-04 -1.448895e-04 -1.702638e-04 -1.897693e-04
          -8.604393e-05 -3.704512e-06 1.018831e-05 -2.152218e-06 -3.074636e-05 -6.235739e-05
          -8.917540e-05 -1.702273e-04 -2.167907e-04 6.683801e-05 -1.287113e-05 3.841213e-05
          8.254779e-05 7.058798e-05 6.417227e-05 7.929152e-05 9.769412e-05 1.403347e-04
          2.789589e-05 1.639470e-04 2.084421e-04 1.387871e-04 7.197776e-05 -3.108187e-05
          1.435419e-04 9.228205e-05 1.703222e-04 1.973833e-04 2.670364e-04 2.306083e-04
          1.364588e-04 1.436051e-04 -3.963605e-05 -2.438499e-04 4.552958e-05 6.798164e-05
          5.248195e-05 7.366401e-05 -1.261219e-05 1.268251e-04 4.717616e-05 3.171834e-05
          2.092298e-05 -1.099521e-04 -6.044541e-05 -2.305590e-05 3.889112e-05 9.775702e-05
          -4.447855e-05 -1.529004e-04 -1.799756e-04 -1.481471e-04 -7.057963e-05 1.240724e-05
          6.700076e-05 2.447065e-04 3.384006e-04 -2.710074e-04 2.864975e-04 3.912639e-04
          3.226885e-04 3.551081e-04 3.660728e-04 3.250941e-04 2.753024e-04 1.050060e-04
          2.325162e-04 1.055152e-04 5.836740e-05 1.223213e-04 1.816643e-04 2.645068e-04
          1.035176e-04 1.299638e-04 1.636243e-04 2.724257e-04 2.345062e-04 2.388313e-04
          1.711191e-04 7.575345e-05 2.226037e-04 3.837823e-04 -7.151528e-05 -2.810983e-04
          -2.830973e-04 -2.954413e-04 -1.244967e-04 6.443186e-05 1.454420e-04 1.585680e-04
          1.508612e-04 -8.671907e-05 -1.888526e-04 -2.235397e-04 -2.734261e-04 -2.971392e-04
          3.464549e-05 3.035486e-04 3.382743e-04 3.115245e-04 2.433760e-04 1.600382e-04
          9.177560e-05 -8.259621e-05 -2.071447e-04 3.081891e-04 1.999821e-06 9.197420e-05
          1.970297e-04 1.762953e-04 1.659801e-04 2.004581e-04 2.413804e-04 3.419369e-04
          6.283550e-04 7.643783e-04 8.095889e-04 7.446047e-04 6.738870e-04 5.446642e-04
          4.957807e-04 -2.425134e-05 6.436030e-05 1.902456e-04 2.812728e-04 2.505521e-04
          2.075260e-04 2.635415e-04 9.473642e-05 -1.165697e-04 -1.595914e-04 -4.852105e-04
          -5.343984e-04 -5.071338e-04 -4.619008e-04 2.224965e-04 1.726926e-04 1.567525e-04
          1.162852e-04 -6.214002e-04 -6.616958e-04 -6.219334e-04 -5.449725e-04 -4.284008e-04
          -2.269249e-04 -3.697926e-05 -4.126494e-05 -8.622102e-06 7.117263e-05 1.560479e-04
          2.006455e-04 3.445434e-04 3.488499e-04 -4.259562e-04 1.830813e-04 3.985769e-04
          3.496613e-04 3.873776e-04 4.003275e-04 3.586127e-04 3.066101e-04 9.176573e-05
          4.945872e-04 4.263043e-04 4.025473e-04 4.403826e-04 4.703515e-04 4.997500e-04
          2.594175e-04 -4.820962e-05 -4.206192e-05 6.095647e-05 5.066658e-05 6.356434e-05
          9.868881e-05 1.027093e-04 1.961863e-04 2.821520e-04 -1.668079e-04 -4.945659e-04
          -5.168457e-04 -5.204904e-04 -3.506338e-04 8.477398e-05 1.488376e-04 1.558506e-04
          1.336027e-04 -3.645250e-04 -4.736593e-04 -4.905660e-04 -5.080089e-04 -4.850367e-04
          -9.650673e-05 2.312853e-04 2.644515e-04 2.500890e-04 2.140776e-04 1.709340e-04
          1.298550e-04 1.424846e-05 -1.096983e-04 5.541162e-05 -1.181030e-04 -2.709163e-05
          3.618589e-05 2.731551e-05 2.343060e-05 4.209762e-05 6.353218e-05 9.720190e-05
          -1.788076e-04 -1.194087e-04 -1.020944e-04 -1.298598e-04 -1.504346e-04 -1.717664e-04
          -1.110552e-05 7.924355e-05 9.407022e-05 6.680487e-05 8.867203e-05 1.055221e-04
          2.501055e-04 3.681776e-04 2.989162e-04 1.998839e-04 2.646613e-04 2.131888e-04
          2.005593e-04 2.088632e-04 1.983680e-04 3.738364e-04 3.574490e-04 3.519254e-04
          3.415637e-04 1.683048e-04 1.711673e-04 1.869506e-04 2.158754e-04 2.514546e-04
          2.541066e-04 2.604638e-04 2.509627e-04 2.636651e-04 2.882317e-04 3.062036e-04
          3.203166e-04 4.002633e-04 4.263090e-04 8.404870e-05 1.329456e-04 1.184537e-04
          9.388779e-05 1.115574e-04 1.200558e-04 1.053572e-04 8.669204e-05 3.693853e-05
          -4.672822e-04 -4.098283e-04 -3.942686e-04 -4.214471e-04 -4.359962e-04 -4.367265e-04
          -1.674837e-04 1.301944e-04 1.303714e-04 5.051860e-05 6.002507e-05 8.991284e-05
          2.999187e-04 4.514543e-04 3.851114e-04 2.878940e-04 4.374507e-04 4.803211e-04
          4.770972e-04 4.824959e-04 4.389387e-04 4.715255e-04 4.540238e-04 4.493915e-04
          4.471312e-04 4.375447e-04 4.629316e-04 4.770751e-04 5.006201e-04 5.195306e-04
          4.324566e-04 3.597027e-04 3.437305e-04 3.551548e-04 3.736763e-04 3.821358e-04
          3.949678e-04 4.847118e-04 5.338007e-04 2.254221e-04 1.623979e-04 8.034326e-05
          5.178272e-05 6.851866e-05 7.768556e-05 6.533979e-05 4.960915e-05 2.888343e-05
          -5.243370e-04 -5.613000e-04 -5.727056e-04 -5.540091e-04 -5.269285e-04 -4.649053e-04
          -3.472719e-04 -2.425988e-05 -1.043697e-04 -2.368648e-04 -2.819854e-04 -2.404875e-04
          -4.869884e-05 4.142626e-05 1.007058e-04 1.631689e-04 2.689792e-04 4.555867e-04
          4.776921e-04 4.656347e-04 4.116469e-04 7.683360e-05 9.464903e-05 1.003977e-04
          1.200599e-04 4.960839e-04 5.332346e-04 5.216912e-04 4.961623e-04 4.481294e-04
          2.944295e-04 1.570018e-04 1.516090e-04 1.406885e-04 1.105766e-04 7.667176e-05
          6.636520e-05 3.949351e-05 6.007675e-05 2.684086e-04 -1.249813e-04 -3.193693e-04
          -3.219958e-04 -3.343310e-04 -3.355339e-04 -3.205351e-04 -3.018301e-04 -1.954102e-04
          -4.324045e-04 -4.269774e-04 -4.165351e-04 -4.203116e-04 -4.205748e-04 -4.071098e-04
          -3.696393e-04 -2.622451e-04 -3.967013e-04 -5.853268e-04 -6.204913e-04 -5.925291e-04
          -4.484477e-04 -3.699930e-04 -3.527838e-04 -3.197016e-04 2.953908e-05 3.744250e-04
          4.044400e-04 3.944884e-04 2.343696e-04 -3.327776e-04 -3.567563e-04 -3.558864e-04
          -3.247822e-04 3.108756e-04 4.124052e-04 4.137391e-04 4.021323e-04 3.477833e-04
          -1.602446e-05 -3.240854e-04 -3.435473e-04 -3.459259e-04 -3.459795e-04 -3.304373e-04
          -3.005171e-04 -2.734264e-04 -1.957701e-04 -9.787051e-05 -3.188209e-04 -5.722663e-04
          -6.353753e-04 -6.484438e-04 -6.490083e-04 -6.467914e-04 -6.421561e-04 -5.689295e-04
          1.488393e-05 1.548638e-04 2.159490e-04 1.463222e-04 7.381551e-05 -4.047800e-05
          -7.187507e-05 -4.648162e-04 -5.861757e-04 -7.470642e-04 -7.113703e-04 -7.104958e-04
          -6.021297e-04 -4.722027e-04 -6.115185e-04 -7.577760e-04 -2.216847e-04 3.460722e-05
          3.700732e-05 4.790964e-05 -1.734493e-04 -4.585691e-04 -5.522474e-04 -5.667931e-04
          -5.542465e-04 -2.117326e-04 -8.213462e-05 -4.145687e-05 1.371740e-05 3.623026e-05
          -3.717339e-04 -6.977589e-04 -7.334767e-04 -7.052648e-04 -6.243383e-04 -5.094622e-04
          -4.144664e-04 -2.345552e-04 -1.019713e-04 -6.621017e-04 -3.416159e-04 -5.103385e-04
          -6.604663e-04 -6.465205e-04 -6.365753e-04 -6.745814e-04 -7.186399e-04 -8.204305e-04
          9.921772e-04 8.710765e-04 8.406608e-04 9.043876e-04 9.445699e-04 9.656635e-04
          3.497047e-04 -4.450947e-04 -5.305565e-04 -4.295652e-04 -4.625684e-04 -4.624311e-04
          -5.411908e-04 -6.281980e-04 -4.506065e-04 -2.449017e-04 -7.412240e-04 -1.022169e-03
          -1.035147e-03 -1.048248e-03 -8.922952e-04 -6.536783e-04 -5.784901e-04 -5.668779e-04
          -5.778346e-04 -8.827698e-04 -9.839127e-04 -1.012464e-03 -1.054580e-03 -1.062923e-03
          -6.946390e-04 -3.809610e-04 -3.350794e-04 -3.617735e-04 -4.131579e-04 -4.478300e-04
          -4.821779e-04 -6.847819e-04 -8.429733e-04 -3.687278e-04 -5.758072e-04 -5.222953e-04
          -4.690911e-04 -5.023349e-04 -5.156345e-04 -4.840340e-04 -4.453110e-04 -3.649935e-04
          1.514553e-03 1.758849e-03 1.853224e-03 1.737554e-03 1.599106e-03 1.330841e-03
          9.304650e-04 -5.299235e-04 -4.974137e-04 -3.372904e-04 -1.845099e-04 -2.369531e-04
          -3.008161e-04 -1.886450e-04 -4.590809e-04 -7.863929e-04 -7.687778e-04 -1.268570e-03
          -1.351832e-03 -1.307673e-03 -1.294277e-03 -2.602519e-04 -3.618421e-04 -3.907506e-04
          -4.530528e-04 -1.570352e-03 -1.604868e-03 -1.530525e-03 -1.394392e-03 -1.198416e-03
          -9.467307e-04 -6.900025e-04 -6.963866e-04 -6.397205e-04 -4.871472e-04 -2.971033e-04
          -1.844750e-04 5.638760e-05 6.777691e-05 -1.275056e-03 -1.823269e-04 9.734997e-05
          -4.527688e-05 7.462523e-06 2.723976e-05 -4.749317e-05 -1.390349e-04 -5.094037e-04
          1.379610e-03 1.378143e-03 1.389680e-03 1.401451e-03 1.389702e-03 1.323229e-03
          6.743628e-04 -6.148388e-04 -7.134170e-04 -6.004961e-04 -5.733174e-04 -5.401458e-04
          -3.165965e-04 -1.420305e-04 -7.902472e-05 -5.381519e-05 -6.589732e-04 -1.301544e-03
          -1.366407e-03 -1.359279e-03 -1.143909e-03 -1.795865e-04 -1.204083e-04 -1.207234e-04
          -1.730903e-04 -1.248317e-03 -1.402444e-03 -1.395623e-03 -1.367390e-03 -1.260880e-03
          -6.453294e-04 -1.031696e-04 -5.614900e-05 -5.713205e-05 -5.076408e-05 -2.673591e-05
          -2.486188e-05 -1.046558e-04 -2.848512e-04 -6.092822e-04 -6.298446e-04 -5.420089e-04
          -5.464982e-04 -5.469070e-04 -5.436289e-04 -5.429913e-04 -5.437155e-04 -6.017708e-04
          2.027710e-04 2.175301e-04 2.329542e-04 2.324961e-04 2.284781e-04 2.178553e-04
          1.321627e-05 -4.545111e-04 -6.125201e-04 -7.266836e-04 -7.404212e-04 -6.767548e-04
          -2.982561e-04 -4.790164e-05 -9.985766e-06 -7.348214e-08 -7.982052e-05 -2.043553e-04
          -2.216845e-04 -2.243505e-04 -2.157622e-04 -2.919273e-05 -7.154567e-06 -6.905691e-06
          -1.655845e-05 -2.094246e-04 -2.254615e-04 -2.182509e-04 -2.054624e-04 -1.776761e-04
          -8.767298e-05 -9.786307e-07 8.136991e-06 7.575490e-06 9.010679e-06 2.278387e-05
          4.130797e-05 3.879304e-05 -2.409977e-07 -2.140518e-04 -5.147611e-04 -7.013287e-04
          -7.505189e-04 -7.542348e-04 -7.485416e-04 -7.473195e-04 -7.458276e-04 -7.138977e-04
          -8.443712e-04 -8.561270e-04 -8.585159e-04 -8.550422e-04 -8.384251e-04 -7.815737e-04
          -5.244221e-04 1.797586e-05 -6.744428e-05 -2.612473e-04 -3.073548e-04 -2.722212e-04
          -1.060005e-04 -2.878795e-05 -7.851969e-06 2.424173e-05 3.752181e-04 7.649909e-04
          8.032174e-04 7.911162e-04 6.428892e-04 1.884546e-05 5.535028e-06 8.806848e-06
          4.367611e-05 7.465853e-04 8.455509e-04 8.399705e-04 8.175364e-04 7.474468e-04
          3.686696e-04 3.937556e-05 1.636744e-05 1.058251e-05 -6.258076e-06 -2.420695e-05
          -1.663454e-05 7.666949e-06 9.535169e-05 2.796943e-04 -5.942679e-05 -3.135823e-04
          -3.447401e-04 -3.550579e-04 -3.551343e-04 -3.471031e-04 -3.360251e-04 -2.321405e-04
          -1.345810e-03 -1.361354e-03 -1.367409e-03 -1.361690e-03 -1.332376e-03 -1.235387e-03
          -7.868336e-04 1.062348e-04 -9.085270e-06 -2.964501e-04 -3.646810e-04 -2.978742e-04
          3.509557e-05 2.048057e-04 2.350978e-04 2.677497e-04 7.220177e-04 1.231235e-03
          1.281372e-03 1.264496e-03 1.076840e-03 2.788207e-04 2.708828e-04 2.762296e-04
          3.211341e-04 1.228757e-03 1.354525e-03 1.346007e-03 1.315924e-03 1.224043e-03
          7.346140e-04 3.067377e-04 2.749979e-04 2.665851e-04 2.370637e-04 1.977063e-04
          1.995010e-04 2.381666e-04 3.545878e-04 5.655985e-04 -1.590021e-05 -3.946362e-04