<?xml version="1.0"?>
<VTKFile type="RectilinearGrid" version="0.1" byte_order="LittleEndian">
  <RectilinearGrid WholeExtent="0 47 0 47 0 47">
    <Piece Extent="0 47 0 47 0 47">
      <PointData Scalars="concentration">
        <DataArray type="Float32" Name="concentration" NumberOfComponents="1" format="ascii">
          4.933664e-04 5.102918e-04 5.260626e-04 5.228422e-04 5.096490e-04 4.715347e-04
          1.760100e-04 -4.388589e-04 -5.495703e-04 -5.840694e-04 -5.805050e-04 -5.524646e-04
          -3.699613e-04 -2.365136e-04 -2.148929e-04 -2.073602e-04 -3.146599e-04 -4.721761e-04
          -4.926392e-04 -4.914863e-04 -4.693488e-04 -2.387665e-04 -2.282401e-04 -2.296805e-04
          -2.424416e-04 -4.949804e-04 -5.187819e-04 -5.106220e-04 -4.951122e-04 -4.606781e-04
          -3.395766e-04 -2.247087e-04 -2.130733e-04 -2.114231e-04 -1.999953e-04 -1.712647e-04
          -1.496854e-04 -1.580111e-04 -2.023146e-04 -3.883596e-04 -4.548656e-04 -5.274097e-04
          -5.686321e-04 -5.719850e-04 -5.691327e-04 -5.721565e-04 -5.753858e-04 -5.862624e-04
          2.247839e-04 2.436256e-04 2.589124e-04 2.561609e-04 2.498776e-04 2.345948e-04
          4.194642e-05 -4.124421e-04 -5.505943e-04 -6.450211e-04 -6.533207e-04 -5.970302e-04
          -2.565116e-04 -2.752751e-05 4.807061e-07 1.269572e-06 -8.345193e-05 -2.193900e-04
          -2.382087e-04 -2.391796e-04 -2.252237e-04 -1.320012e-05 5.974777e-06 5.550869e-06
          -5.757359e-06 -2.275165e-04 -2.466449e-04 -2.387176e-04 -2.238059e-04 -1.922222e-04
          -9.216035e-05 3.261948e-06 1.206105e-05 1.274722e-05 1.701366e-05 3.266530e-05
          5.043956e-05 5.242729e-05 1.450009e-05 -2.124148e-04 -4.583887e-04 -6.142858e-04
          -6.594587e-04 -6.612610e-04 -6.555332e-04 -6.561222e-04 -6.566982e-04 -6.374323e-04
          -5.101202e-05 1.644693e-04 2.459332e-04 1.452620e-04 5.113352e-05 -8.591371e-05
          3.950042e-05 -3.853917e-04 -4.936235e-04 -6.651913e-04 -5.968105e-04 -5.485007e-04
          -9.896352e-05 2.871919e-04 7.413193e-05 -2.092245e-04 1.941359e-04 1.629915e-04
          1.277276e-04 1.518384e-04 4.741371e-06 3.046825e-04 2.189293e-04 1.980014e-04
          1.779817e-04 -9.449374e-05 -2.111164e-05 4.026006e-05 1.411085e-04 2.456114e-04
          6.388354e-05 -6.227496e-05 -9.680875e-05 -5.298081e-05 5.332287e-05 1.782915e-04
          2.782892e-04 5.443581e-04 6.539039e-04 -4.792820e-04 -2.091158e-04 -3.805998e-04
          -5.467834e-04 -5.049902e-04 -4.805029e-04 -5.353592e-04 -6.019740e-04 -7.721730e-04
          -9.833294e-05 -2.658934e-04 -3.183852e-04 -2.285518e-04 -1.390251e-04 4.989216e-06
          -2.257642e-04 -2.420161e-04 -4.077948e-04 -5.073561e-04 -6.059491e-04 -5.144741e-04
          -1.306647e-04 3.012815e-05 2.824424e-04 5.368116e-04 9.307776e-05 -2.782458e-05
          -1.922091e-05 -4.737563e-05 8.675539e-05 6.659039e-05 1.888311e-04 2.094484e-04
          2.150590e-04 2.201367e-04 1.369548e-04 9.182472e-05 1.928225e-05 -3.754328e-05
          2.258279e-04 4.366448e-04 4.761194e-04 4.346457e-04 3.302711e-04 2.165920e-04
          1.461887e-04 -7.816470e-05 -2.220550e-04 4.179404e-04 -5.305878e-04 -7.682805e-04
          -6.936694e-04 -7.332664e-04 -7.423221e-04 -6.879699e-04 -6.223129e-04 -3.786898e-04
          -8.419856e-05 7.490812e-05 1.358618e-04 6.116041e-05 -8.722261e-06 -1.091394e-04
          -1.272373e-05 -3.089999e-04 -4.009184e-04 -5.459817e-04 -4.991405e-04 -4.633638e-04
          -1.332626e-04 1.489702e-04 -7.435599e-06 -2.116953e-04 1.340913e-04 1.601363e-04
          1.385651e-04 1.552023e-04 2.518279e-05 1.652599e-04 9.752636e-05 8.219449e-05
          7.179142e-05 -3.927252e-05 2.882936e-05 7.409970e-05 1.465197e-04 2.156144e-04
          3.092424e-05 -1.051874e-04 -1.333656e-04 -1.013125e-04 -2.241881e-05 7.233129e-05
          1.499023e-04 3.492076e-04 4.412688e-04 -3.725680e-04 -1.830077e-04 -3.332426e-04
          -4.628020e-04 -4.337592e-04 -4.160743e-04 -4.564474e-04 -5.052433e-04 -6.236616e-04
          1.150664e-04 2.772805e-04 3.410415e-04 2.644561e-04 1.879956e-04 6.882346e-05
          7.932338e-05 -3.712829e-04 -4.592045e-04 -5.755166e-04 -5.207562e-04 -4.988326e-04
          -2.419243e-04 -6.003256e-07 -1.615939e-04 -3.642525e-04 -3.111373e-05 -2.704232e-05
          -5.137055e-05 -3.316165e-05 -1.605339e-04 6.103427e-06 -6.748681e-05 -8.380786e-05
          -9.598948e-05 -2.415927e-04 -1.759366e-04 -1.290399e-04 -5.380166e-05 2.049972e-05
          -1.486584e-04 -2.692099e-04 -2.954037e-04 -2.621103e-04 -1.764706e-04 -6.944947e-05
          1.401790e-05 2.101021e-04 2.970581e-04 -5.207846e-04 -2.269098e-04 -3.382464e-04
          -4.719601e-04 -4.438100e-04 -4.273292e-04 -4.701071e-04 -5.216131e-04 -6.605085e-04
          3.250322e-04 1.073035e-04 4.052848e-05 1.541864e-04 2.563327e-04 4.006513e-04
          -6.121784e-05 -3.334562e-04 -4.899921e-04 -5.088694e-04 -6.136381e-04 -5.499804e-04
          -3.584813e-04 -3.349647e-04 -2.660669e-05 3.095946e-04 -2.826877e-04 -4.592079e-04
          -4.493769e-04 -4.815621e-04 -3.004847e-04 -3.179892e-04 -1.793369e-04 -1.548336e-04
          -1.489188e-04 -1.701941e-04 -2.810558e-04 -3.386017e-04 -4.310391e-04 -5.014524e-04
          -1.426317e-04 1.478550e-04 2.021232e-04 1.509465e-04 3.046867e-05 -9.185996e-05
          -1.752964e-04 -4.786098e-04 -6.689971e-04 2.337288e-04 -6.462011e-04 -7.969916e-04
          -6.934513e-04 -7.467326e-04 -7.636713e-04 -6.986861e-04 -6.197146e-04 -3.625351e-04
          2.036242e-04 5.250346e-04 6.444426e-04 4.892025e-04 3.361934e-04 9.756804e-05
          2.341206e-04 -4.356726e-04 -4.957224e-04 -6.279462e-04 -5.008246e-04 -4.960514e-04
          -2.046818e-04 1.369044e-04 -2.163196e-04 -6.446136e-04 -4.571580e-06 -1.029708e-05
          -5.740922e-05 -1.653238e-05 -2.422375e-04 1.326028e-04 -2.323685e-05 -5.693124e-05
          -8.382811e-05 -4.282940e-04 -3.100356e-04 -2.186320e-04 -6.927697e-05 7.987650e-05
          -2.272116e-04 -4.472349e-04 -5.012771e-04 -4.323450e-04 -2.591171e-04 -5.343715e-05
          9.883467e-05 4.948453e-04 6.754395e-04 -9.023899e-04 -9.593958e-05 -1.634313e-04
          -3.935217e-04 -3.304982e-04 -2.997671e-04 -3.879963e-04 -4.948176e-04 -8.117796e-04
          2.076251e-04 1.755331e-04 1.719521e-04 1.938792e-04 2.116485e-04 2.334498e-04
          1.470371e-05 -3.436374e-04 -4.709986e-04 -5.411344e-04 -5.688063e-04 -5.133824e-04
          -2.188925e-04 -4.336261e-05 4.046893e-05 1.084729e-04 -8.660906e-05 -2.312450e-04
          -2.435715e-04 -2.507669e-04 -1.972764e-04 -2.912828e-05 1.541830e-05 2.030903e-05
          1.240036e-05 -1.720321e-04 -2.124007e-04 -2.188998e-04 -2.271913e-04 -2.176210e-04
          -5.934643e-05 7.914793e-05 9.708898e-05 8.689743e-05 6.386411e-05 4.695398e-05
          4.022775e-05 -2.120209e-05 -9.000532e-05 -7.187998e-05 -4.425138e-04 -5.835859e-04
          -5.915265e-04 -6.030360e-04 -6.021429e-04 -5.887469e-04 -5.726601e-04 -5.047831e-04
          5.567836e-05 8.629974e-05 1.033447e-04 9.482011e-05 8.741827e-05 7.815653e-05
          -1.218131e-05 -3.253774e-04 -4.507737e-04 -5.597083e-04 -5.659578e-04 -5.020586e-04
          -1.103105e-04 1.539941e-04 1.647179e-04 1.391801e-04 8.141791e-05 -4.811573e-05
          -6.746957e-05 -6.705210e-05 -5.697749e-05 1.737601e-04 1.907807e-04 1.895407e-04
          1.771579e-04 -5.812126e-05 -7.456177e-05 -6.416887e-05 -4.445029e-05 -8.604819e-06
          7.900775e-05 1.628108e-04 1.676202e-04 1.707531e-04 1.772132e-04 1.893744e-04
          2.059186e-04 2.295453e-04 2.033087e-04 -9.236600e-05 -3.640880e-04 -5.318092e-04
          -5.771022e-04 -5.736485e-04 -5.656068e-04 -5.684167e-04 -5.723449e-04 -5.563204e-04
          -1.072965e-04 -6.476059e-05 -4.535377e-05 -5.947601e-05 -6.795263e-05 -7.135861e-05
          -7.039127e-05 -2.633992e-04 -3.849953e-04 -5.155820e-04 -5.210980e-04 -4.468008e-04
          1.184636e-05 3.213226e-04 3.175100e-04 2.678316e-04 2.381999e-04 1.156528e-04
          9.565601e-05 9.708260e-05 1.012584e-04 3.477389e-04 3.633229e-04 3.613434e-04
          3.480737e-04 1.029529e-04 9.002887e-05 1.030645e-04 1.276324e-04 1.677128e-04
          2.410274e-04 3.121143e-04 3.131493e-04 3.185316e-04 3.270144e-04 3.364007e-04
          3.528700e-04 3.974471e-04 3.820867e-04 1.433118e-05 -2.987794e-04 -4.896132e-04
          -5.378472e-04 -5.297722e-04 -5.192637e-04 -5.241220e-04 -5.309611e-04 -5.152794e-04
          -1.977869e-05 -9.753726e-06 -2.717271e-06 -2.257113e-06 1.280647e-06 1.167419e-05
          -2.854658e-05 -1.932279e-04 -2.830258e-04 -3.634046e-04 -3.741566e-04 -3.170001e-04
          1.943423e-05 2.380449e-04 2.620230e-04 2.539977e-04 1.500137e-04 1.799690e-05
          2.175292e-06 1.019671e-06 3.397678e-05 2.558454e-04 2.818444e-04 2.826065e-04
          2.710596e-04 4.120474e-05 1.331416e-05 1.727621e-05 2.737443e-05 5.413327e-05
          1.692904e-04 2.719388e-04 2.791756e-04 2.784925e-04 2.733849e-04 2.671136e-04
          2.685493e-04 2.707875e-04 2.362591e-04 4.667991e-05 -2.428359e-04 -3.731101e-04
          -3.926598e-04 -3.905237e-04 -3.845205e-04 -3.821001e-04 -3.801399e-04 -3.509892e-04
          1.715267e-04 1.588855e-04 1.572099e-04 1.665333e-04 1.739111e-04 1.806306e-04
          7.257983e-05 -1.271828e-04 -1.683224e-04 -1.736778e-04 -1.798025e-04 -1.550816e-04
          -1.850967e-05 6.673826e-05 1.012638e-04 1.225070e-04 -3.253852e-05 -1.706521e-04
          -1.831762e-04 -1.845579e-04 -1.303816e-04 6.810803e-05 9.359165e-05 9.545252e-05
          8.513379e-05 -1.334175e-04 -1.714960e-04 -1.736568e-04 -1.734046e-04 -1.559918e-04
          -1.194194e-05 1.127852e-04 1.246578e-04 1.208202e-04 1.112326e-04 1.016640e-04
          9.447487e-05 6.464864e-05 1.812205e-05 -1.753027e-05 -1.634339e-04 -1.927052e-04
          -1.881567e-04 -1.903778e-04 -1.893277e-04 -1.839163e-04 -1.780686e-04 -1.603811e-04
          2.055699e-04 2.567881e-04 2.759822e-04 2.521495e-04 2.267813e-04 1.814789e-04
          1.473147e-04 -8.160451e-05 -8.033055e-05 -6.583004e-05 -3.791162e-05 -3.703329e-05
          1.611656e-05 7.980756e-05 2.574498e-05 -4.724139e-05 -4.950156e-05 -1.592638e-04
          -1.771568e-04 -1.685106e-04 -1.616405e-04 7.114471e-05 5.525120e-05 4.960917e-05
          3.586109e-05 -2.116816e-04 -2.217078e-04 -2.064366e-04 -1.778190e-04 -1.358080e-04
          -7.633884e-05 -1.769869e-05 -1.945432e-05 -8.087782e-06 2.023360e-05 5.252092e-05
          7.254774e-05 1.262284e-04 1.281691e-04 -1.742120e-04 -2.051896e-05 1.124211e-05
          -1.682263e-05 -4.464715e-06 9.164305e-07 -1.341184e-05 -3.139654e-05 -9.779221e-05
          2.184692e-04 1.441913e-04 1.185593e-04 1.569660e-04 1.913177e-04 2.362470e-04
          8.882189e-05 -8.559178e-07 -2.548102e-06 5.395671e-05 3.073573e-05 4.058613e-05
          4.396506e-05 1.690835e-05 1.114875e-04 2.108966e-04 -8.761307e-05 -2.453543e-04
          -2.503104e-04 -2.578288e-04 -1.489711e-04 1.077346e-05 6.302921e-05 7.076414e-05
          6.367432e-05 -1.293673e-04 -1.965306e-04 -2.162848e-04 -2.437137e-04 -2.516084e-04
          -2.601905e-05 1.598879e-04 1.831979e-04 1.670874e-04 1.269950e-04 8.049230e-05
          4.250531e-05 -6.526030e-05 -1.496172e-04 1.274577e-04 -8.403930e-05 -4.753991e-05
          8.912404e-06 -4.242474e-06 -1.002478e-05 1.088635e-05 3.553608e-05 9.675897e-05
          1.381830e-04 2.334526e-04 2.657200e-04 2.192552e-04 1.738543e-04 1.006291e-04
          1.641777e-04 -6.385288e-06 2.798090e-05 4.797440e-05 9.728797e-05 8.726098e-05
          1.133123e-04 1.798089e-04 6.389757e-05 -7.874858e-05 2.458640e-05 -6.381841e-05
          -8.498116e-05 -6.960303e-05 -9.307593e-05 1.677195e-04 1.258742e-04 1.153173e-04
          9.913912e-05 -1.705969e-04 -1.622990e-04 -1.354925e-04 -8.761702e-05 -2.913383e-05
          -2.727996e-05 -1.480289e-05 -2.682209e-05 -5.093338e-06 4.688877e-05 1.022588e-04
          1.377227e-04 2.522117e-04 2.893023e-04 -2.049499e-04 1.169146e-04 1.806203e-04
          1.334816e-04 1.571802e-04 1.663303e-04 1.390176e-04 1.052175e-04 -1.322527e-05
          4.750812e-05 -5.573106e-06 -2.343334e-05 5.440816e-06 3.439428e-05 7.872173e-05
          1.887845e-07 -3.288231e-05 -6.410755e-05 -6.376036e-05 -8.857209e-05 -6.007581e-05
          6.287614e-05 1.177021e-04 1.956495e-04 2.674670e-04 4.575330e-05 -7.573337e-05
          -8.052857e-05 -8.745187e-05 -8.537126e-06 1.234682e-04 1.694820e-04 1.758237e-04
          1.701029e-04 1.849938e-05 -3.154260e-05 -4.574290e-05 -6.515977e-05 -6.936394e-05
          9.965226e-05 2.392346e-04 2.562765e-04 2.436185e-04 2.100746e-04 1.698240e-04
          1.412337e-04 6.542593e-05 1.235339e-06 1.648040e-04 -1.166444e-04 -1.506176e-04
          -1.151946e-04 -1.245886e-04 -1.268504e-04 -1.097573e-04 -8.979208e-05 -2.540343e-05
          -6.267043e-05 -8.969774e-05 -9.531376e-05 -7.615595e-05 -5.374058e-05 -1.279868e-05
          -7.996105e-05 -1.936875e-04 -2.996843e-04 -3.876505e-04 -4.175607e-04 -3.505555e-04
          1.073659e-05 2.263694e-04 2.983214e-04 3.436434e-04 1.661434e-04 3.396351e-05
          2.308330e-05 1.623776e-05 7.191711e-05 2.493998e-04 2.968040e-04 3.018249e-04
          2.935776e-04 1.069844e-04 6.651537e-05 6.009197e-05 5.305899e-05 6.276929e-05
          2.118514e-04 3.393700e-04 3.532608e-04 3.439532e-04 3.172981e-04 2.866544e-04
          2.721253e-04 2.277616e-04 1.701950e-04 1.482084e-04 -2.955944e-04 -4.532810e-04
          -4.523740e-04 -4.585548e-04 -4.553966e-04 -4.417545e-04 -4.262935e-04 -3.501158e-04
          -1.115402e-04 1.727283e-04 2.760143e-04 1.404160e-04 1.519446e-05 -1.661587e-04
          8.447943e-05 -3.097852e-04 -3.792798e-04 -5.470827e-04 -4.457009e-04 -4.076231e-04
          4.004607e-05 4.576439e-04 1.531681e-04 -2.376870e-04 3.003953e-04 2.695075e-04
          2.255704e-04 2.601601e-04 7.586306e-05 4.705507e-04 3.488986e-04 3.204905e-04
          2.938178e-04 -6.850623e-05 2.566166e-05 1.055779e-04 2.381472e-04 3.742968e-04
          1.333747e-04 -3.752394e-05 -8.568309e-05 -2.613187e-05 1.167739e-04 2.777566e-04
          4.021619e-04 7.598249e-04 9.150241e-04 -5.442593e-04 -4.256878e-05 -1.750040e-04
          -3.731292e-04 -3.135912e-04 -2.827675e-04 -3.571486e-04 -4.483620e-04 -6.981147e-04
          -2.482722e-05 -1.298560e-04 -1.618191e-04 -1.036964e-04 -4.490191e-05 4.977169e-05
          -1.183162e-04 -1.997122e-04 -3.248214e-04 -3.984227e-04 -4.621189e-04 -3.863700e-04
          -3.797657e-05 1.329659e-04 3.019610e-04 4.598537e-04 1.052197e-04 -5.120530e-05
          -5.400589e-05 -7.153816e-05 4.133474e-05 1.589763e-04 2.487492e-04 2.621819e-04
          2.588124e-04 1.220650e-04 4.922426e-05 2.142937e-05 -2.053462e-05 -4.258949e-05
          2.012621e-04 4.017228e-04 4.315407e-04 4.047836e-04 3.360607e-04 2.595237e-04
          2.121334e-04 6.571924e-05 -4.607937e-05 2.907969e-04 -3.969080e-04 -5.703082e-04
          -5.232645e-04 -5.467891e-04 -5.506279e-04 -5.148348e-04 -4.725159e-04 -3.130107e-04
          1.971171e-05 1.492069e-05 1.345308e-05 1.649582e-05 2.022320e-05 2.617171e-05
          1.768824e-05 -1.700829e-06 -5.569927e-06 -3.230349e-06 -4.747149e-06 3.820119e-06
          5.115382e-05 8.024781e-05 8.948211e-05 9.272053e-05 3.336108e-05 -1.888208e-05
          -2.345139e-05 -2.359176e-05 3.273811e-08 8.096589e-05 9.075945e-05 9.147767e-05
          8.720129e-05 -1.154112e-06 -1.696154e-05 -1.800711e-05 -1.795924e-05 -1.124136e-05
          4.539120e-05 9.344122e-05 9.730524e-05 9.601789e-05 9.175576e-05 8.505720e-05
          7.980232e-05 7.101069e-05 5.531597e-05 4.034697e-05 -1.275276e-05 -1.543575e-05
          -9.345262e-06 -8.804378e-06 -8.288480e-06 -6.144071e-06 -4.394634e-06 1.223953e-06
          5.015321e-05 1.057640e-04 1.217890e-04 9.078566e-05 6.022118e-05 1.038077e-05
          1.113747e-04 1.611822e-04 2.493845e-04 3.142750e-04 3.534843e-04 3.121218e-04
          1.242837e-04 3.397990e-05 -5.968847e-05 -1.524502e-04 -2.301491e-05 -3.684782e-07
          -4.485287e-06 6.541392e-06 -2.538536e-05 1.594395e-05 -2.658718e-05 -3.384396e-05
          -3.783639e-05 -7.971389e-05 -5.896271e-05 -4.410462e-05 -1.925327e-05 2.775995e-06
          -6.363914e-05 -1.168789e-04 -1.297289e-04 -1.151134e-04 -7.904456e-05 -4.271954e-05
          -2.329856e-05 5.246108e-05 9.946873e-05 -1.093270e-04 2.734150e-04 4.006631e-04
          3.863086e-04 4.019571e-04 4.043820e-04 3.853891e-04 3.616805e-04 2.666425e-04
          3.832800e-05 -2.329882e-04 -3.310260e-04 -1.988950e-04 -7.246654e-05 1.171054e-04
          -1.006434e-04 2.652426e-04 2.991921e-04 4.255169e-04 3.222788e-04 3.211159e-04
          9.725991e-05 -1.719097e-04 1.344879e-04 5.010552e-04 -1.138476e-04 -1.902444e-04
          -1.591935e-04 -1.926585e-04 2.317936e-05 -1.738915e-04 -3.590499e-05 -7.650689e-06
          8.401050e-06 1.653478e-04 4.691712e-05 -2.894929e-05 -1.511449e-04 -2.631116e-04
          7.210596e-05 3.254759e-04 3.773241e-04 3.190462e-04 1.748167e-04 7.091773e-06
          -1.193865e-04 -4.644285e-04 -6.400587e-04 6.501016e-04 -2.216902e-05 4.595773e-05
          2.370295e-04 1.833310e-04 1.574830e-04 2.319069e-04 3.213730e-04 5.797626e-04
          -2.602855e-04 -1.829884e-05 6.032269e-05 -6.333560e-05 -1.762395e-04 -3.382396e-04
          7.879557e-05 1.846170e-04 2.947082e-04 2.739189e-04 3.830645e-04 3.373140e-04
          2.693726e-04 3.371437e-04 1.633409e-05 -3.445793e-04 2.654906e-04 4.066270e-04
          3.887222e-04 4.228716e-04 2.304945e-04 3.250929e-04 1.828193e-04 1.562908e-04
          1.457733e-04 9.015847e-05 2.036873e-04 2.690215e-04 3.743698e-04 4.621998e-04
          1.096487e-04 -1.700995e-04 -2.252730e-04 -1.699726e-04 -3.819400e-05 1.007017e-04
          1.985240e-04 5.264288e-04 7.175055e-04 -3.450112e-04 5.023802e-04 5.979251e-04
          4.666609e-04 5.231472e-04 5.435759e-04 4.734414e-04 3.878350e-04 1.194418e-04
          -2.899492e-04 -3.015550e-04 -3.101922e-04 -3.070834e-04 -2.981464e-04 -2.739394e-04
          -1.179682e-04 2.132475e-04 2.603551e-04 2.651755e-04 2.593921e-04 2.493443e-04
          1.772234e-04 1.200209e-04 1.145301e-04 1.164007e-04 1.790489e-04 2.734527e-04
          2.853408e-04 2.837582e-04 2.678927e-04 1.243282e-04 1.207572e-04 1.219725e-04
          1.299665e-04 2.880261e-04 3.031179e-04 2.981678e-04 2.882150e-04 2.670669e-04
          1.934624e-04 1.244549e-04 1.182144e-04 1.164618e-04 1.081440e-04 9.109380e-05
          7.956537e-05 8.144890e-05 1.051310e-04 2.148100e-04 2.120908e-04 2.300290e-04
          2.499412e-04 2.505716e-04 2.490666e-04 2.518356e-04 2.550233e-04 2.699233e-04
          -2.491839e-04 -2.970519e-04 -3.164561e-04 -2.956501e-04 -2.713664e-04 -2.265862e-04
          -1.473861e-04 1.573459e-04 1.815474e-04 1.824068e-04 1.588562e-04 1.501763e-04
          5.503525e-05 -3.429324e-05 7.589803e-06 6.945115e-05 8.664974e-05 2.067678e-04
          2.256458e-04 2.183000e-04 2.105724e-04 -2.793571e-05 -1.650926e-05 -1.147018e-05
          2.380656e-06 2.560859e-04 2.677278e-04 2.530338e-04 2.254311e-04 1.833906e-04
          1.140111e-04 4.590004e-05 4.560327e-05 3.551518e-05 9.298363e-06 -2.344010e-05
          -4.499302e-05 -9.090963e-05 -8.525042e-05 2.145182e-04 1.105009e-04 1.064573e-04
          1.398057e-04 1.298899e-04 1.243768e-04 1.372103e-04 1.531839e-04 2.095576e-04
          -2.553036e-04 -1.036627e-04 -5.297073e-05 -1.316853e-04 -2.029931e-04 -3.035635e-04
          -3.234460e-05 7.607053e-05 1.253589e-04 7.954670e-05 1.411116e-04 1.102048e-04
          4.943866e-05 7.655712e-05 -1.237549e-04 -3.400764e-04 1.420853e-04 3.333975e-04
          3.316874e-04 3.509932e-04 1.865282e-04 7.492297e-05 -2.402532e-05 -4.055637e-05
          -3.791592e-05 1.154919e-04 2.153947e-04 2.561240e-04 3.178038e-04 3.557973e-04
          2.968146e-05 -2.352159e-04 -2.754789e-04 -2.413017e-04 -1.577520e-04 -6.549064e-05
          3.228341e-06 2.144450e-04 3.578899e-04 -2.549074e-04 2.692248e-04 2.881182e-04
          1.931488e-04 2.248748e-04 2.366809e-04 1.927368e-04 1.400508e-04 -1.531187e-05
          -1.120597e-04 -2.249995e-04 -2.644879e-04 -2.105580e-04 -1.575748e-04 -7.467839e-05
          -1.421619e-04 7.409372e-05 6.489623e-05 7.670000e-05 2.523857e-05 2.595399e-05
          -6.639175e-05 -1.824636e-04 -5.324132e-05 1.088070e-04 -4.291329e-05 3.291334e-05
          5.575143e-05 3.939091e-05 8.360550e-05 -1.751792e-04 -1.265598e-04 -1.145507e-04
          -9.827950e-05 1.630483e-04 1.435761e-04 1.117133e-04 5.623025e-05 -8.192686e-06
          2.165155e-05 3.344706e-05 4.891096e-05 2.399075e-05 -3.604828e-05 -1.023149e-04
          -1.480106e-04 -2.846870e-04 -3.329233e-04 2.540606e-04 -5.552202e-05 -7.919851e-05
          -1.293182e-05 -3.883555e-05 -5.028255e-05 -1.894752e-05 1.962817e-05 1.442150e-04
          -4.308555e-05 1.029377e-04 1.536613e-04 7.818142e-05 5.239317e-06 -1.064391e-04
          6.083443e-05 -2.796997e-06 4.093263e-05 2.093414e-05 8.581594e-05 4.824687e-05
          -5.085434e-05 -4.616018e-05 -2.364958e-04 -4.389514e-04 -1.306951e-05 1.286193e-04
          1.225064e-04 1.421471e-04 -4.423733e-06 -5.583675e-05 -1.516065e-04 -1.680091e-04
          -1.687068e-04 -8.741544e-05 5.577496e-08 4.016926e-05 1.017770e-04 1.455636e-04
          -1.300016e-04 -3.500297e-04 -3.849637e-04 -3.517118e-04 -2.673441e-04 -1.697315e-04
          -9.989691e-05 9.496127e-05 2.203541e-04 -3.766254e-04 1.923411e-04 2.391517e-04
          1.451497e-04 1.744203e-04 1.848837e-04 1.415224e-04 8.959706e-05 -7.417097e-05
          -2.712925e-05 -8.786365e-05 -1.080142e-04 -7.844670e-05 -5.010432e-05 -6.860977e-06
          -6.990995e-05 -5.995644e-06 -2.530139e-05 -2.698978e-05 -5.603059e-05 -5.091909e-05
          -7.303911e-05 -1.173895e-04 -4.299272e-05 4.755340e-05 -4.445748e-05 -1.570820e-05
          -4.971123e-06 -1.409088e-05 1.128273e-05 -1.124401e-04 -8.403703e-05 -7.746475e-05
          -6.952654e-05 5.439098e-05 4.198894e-05 2.518883e-05 -4.061375e-06 -3.663033e-05
          -1.073394e-05 4.948171e-06 1.447432e-05 7.521384e-07 -3.172056e-05 -6.600657e-05
          -8.906869e-05 -1.650048e-04 -1.956074e-04 1.084869e-04 -8.160513e-05 -1.087405e-04
          -7.702537e-05 -9.172806e-05 -9.762480e-05 -8.041135e-05 -5.922780e-05 1.085878e-05
          -5.051644e-05 1.613315e-05 4.137529e-05 9.234759e-06 -2.054796e-05 -6.336984e-05
          -1.044793e-05 -1.048064e-04 -1.338466e-04 -1.889809e-04 -1.683117e-04 -1.589837e-04
          -5.362125e-05 4.324722e-05 -2.631831e-05 -1.127203e-04 5.106295e-05 8.207731e-05
          7.512679e-05 8.224594e-05 2.148728e-05 4.894954e-05 1.703261e-05 1.044339e-05
          7.671802e-06 -5.467065e-06 2.778626e-05 4.662769e-05 7.611280e-05 1.018050e-04
          5.292203e-06 -6.851231e-05 -8.171772e-05 -6.804664e-05 -3.409444e-05 6.426248e-06
          3.921044e-05 1.246399e-04 1.692087e-04 -1.549068e-04 -4.627083e-05 -9.838088e-05
          -1.514328e-04 -1.392252e-04 -1.323581e-04 -1.497289e-04 -1.706485e-04 -2.231724e-04
          6.790761e-05 1.261253e-04 1.495946e-04 1.223905e-04 9.483525e-05 5.103736e-05
          3.777256e-05 -1.577702e-04 -1.961620e-04 -2.401424e-04 -2.207649e-04 -2.105097e-04
          -1.042685e-04 -8.279560e-06 -6.326567e-05 -1.343699e-04 -2.554801e-05 -3.574186e-05
          -4.571725e-05 -3.933061e-05 -8.204179e-05 -5.711912e-06 -3.051956e-05 -3.632177e-05
          -4.160110e-05 -1.119330e-04 -9.088692e-05 -7.380587e-05 -4.626806e-05 -1.756517e-05
          -6.781931e-05 -1.015610e-04 -1.099496e-04 -9.818360e-05 -6.747391e-05 -2.842443e-05
          2.131189e-06 7.067341e-05 9.811030e-05 -2.035554e-04 -1.086366e-04 -1.536923e-04
          -2.032627e-04 -1.934873e-04 -1.874327e-04 -2.026309e-04 -2.208557e-04 -2.699362e-04
          -1.154961e-05 -5.135422e-05 -6.318140e-05 -4.065175e-05 -1.816079e-05 1.836482e-05
          -5.310813e-05 -9.880339e-05 -1.556054e-04 -1.920429e-04 -2.178901e-04 -1.857899e-04
          -3.499942e-05 4.131431e-05 1.084831e-04 1.706076e-04 3.811709e-05 -1.926551e-05
          -2.019753e-05 -2.739843e-05 1.306556e-05 5.280469e-05 8.774785e-05 9.297727e-05
          9.203675e-05 4.626477e-05 1.974422e-05 9.284145e-06 -6.762124e-06 -1.550578e-05
          7.404089e-05 1.479407e-04 1.593714e-04 1.489899e-04 1.224563e-04 9.364748e-05
          7.658402e-05 2.048598e-05 -2.252617e-05 1.026363e-04 -1.783654e-04 -2.573414e-04
          -2.422090e-04 -2.517910e-04 -2.530256e-04 -2.392399e-04 -2.225790e-04 -1.581743e-04
          -1.766366e-04 -1.744595e-04 -1.736483e-04 -1.715889e-04 -1.646744e-04 -1.444086e-04
          -9.452154e-05 -4.602348e-05 -9.398063e-05 -1.581305e-04 -1.703554e-04 -1.320897e-04
          8.556810e-05 2.211993e-04 2.369037e-04 2.330302e-04 2.013280e-04 1.646211e-04
          1.602932e-04 1.581614e-04 1.681478e-04 2.378395e-04 2.542223e-04 2.554259e-04
          2.522333e-04 1.866620e-04 1.777501e-04 1.781680e-04 1.802554e-04 1.871433e-04
          2.210247e-04 2.501436e-04 2.515645e-04 2.501851e-04 2.422568e-04 2.296741e-04
          2.261362e-04 2.298790e-04 2.192282e-04 1.380453e-04 -8.534831e-05 -1.823792e-04
          -1.892907e-04 -1.880467e-04 -1.842488e-04 -1.811908e-04 -1.777639e-04 -1.459598e-04
          -1.732690e-04 -3.833584e-05 8.092326e-06 -5.704707e-05 -1.152504e-04 -1.950001e-04
          -4.644799e-06 -5.295248e-05 -6.264596e-05 -1.384704e-04 -9.034863e-05 -7.858832e-05
          9.507019e-05 2.659469e-04 1.127448e-04 -7.880388e-05 2.154375e-04 2.442497e-04
          2.283964e-04 2.447575e-04 1.465184e-04 2.730141e-04 2.104936e-04 1.969574e-04
          1.876878e-04 8.329361e-05 1.369156e-04 1.739248e-04 2.346562e-04 2.916804e-04
          1.386389e-04 2.227349e-05 -4.320640e-06 2.441818e-05 9.147455e-05 1.637757e-04
          2.199504e-04 3.966564e-04 4.840860e-04 -1.798030e-04 8.071542e-05 3.031257e-05
          -5.763334e-05 -2.822760e-05 -1.383663e-05 -4.962941e-05 -9.306496e-05 -2.114749e-04
          1.223618e-04 -6.350557e-06 -5.106147e-05 1.255973e-05 7.030821e-05 1.524377e-04
          -2.053897e-05 3.142045e-05 2.518277e-05 7.915575e-05 2.925286e-05 2.950532e-05
          -7.189248e-05 -1.952446e-04 -4.261389e-05 1.406894e-04 -1.535057e-04 -1.941859e-04
          -1.802360e-04 -1.967082e-04 -9.898360e-05 -1.973218e-04 -1.322303e-04 -1.188809e-04
          -1.109289e-04 -3.292425e-05 -8.736437e-05 -1.228531e-04 -1.804548e-04 -2.330536e-04
          -7.407040e-05 4.807787e-05 7.423833e-05 4.629560e-05 -2.048193e-05 -9.341868e-05
          -1.482696e-04 -3.174200e-04 -4.054675e-04 2.078505e-04 -1.089841e-04 -8.974617e-05
          -7.588943e-06 -3.574350e-05 -4.832266e-05 -1.322062e-05 2.983826e-05 1.530025e-04
          1.743179e-04 4.098518e-04 4.911305e-04 3.706740e-04 2.493771e-04 5.507989e-05
          2.438568e-04 -1.713296e-05 7.453789e-05 9.623513e-05 2.121962e-04 1.420834e-04
          -6.532979e-05 -8.162604e-05 -3.895052e-04 -7.195330e-04 -1.367271e-04 -1.656519e-05
          -3.632288e-05 -2.037019e-06 -1.957372e-04 -1.103994e-04 -2.597208e-04 -2.867881e-04
          -2.970766e-04 -3.562745e-04 -2.434104e-04 -1.781132e-04 -7.392774e-05 1.437724e-05
          -3.221162e-04 -5.835444e-04 -6.327549e-04 -5.782073e-04 -4.390629e-04 -2.780332e-04
          -1.684723e-04 1.344882e-04 3.099122e-04 -6.877656e-04 3.149168e-04 4.592184e-04
          3.175317e-04 3.664542e-04 3.830701e-04 3.117011e-04 2.262047e-04 -6.317323e-05
          2.392999e-04 2.292190e-04 2.299570e-04 2.357006e-04 2.347067e-04 2.228154e-04
          6.839089e-05 -1.719687e-04 -2.080092e-04 -2.054246e-04 -2.086227e-04 -2.121745e-04
          -2.384906e-04 -2.562444e-04 -2.336463e-04 -2.020801e-04 -2.290965e-04 -2.411772e-04
          -2.419381e-04 -2.438236e-04 -2.446210e-04 -2.609951e-04 -2.586897e-04 -2.579569e-04
          -2.570380e-04 -2.460911e-04 -2.472174e-04 -2.486506e-04 -2.522496e-04 -2.547100e-04
          -2.423279e-04 -2.288421e-04 -2.237592e-04 -2.262883e-04 -2.268040e-04 -2.177398e-04
          -2.116333e-04 -2.351864e-04 -2.503747e-04 -1.960934e-04 -1.842474e-04 -1.927703e-04
          -2.017694e-04 -2.087146e-04 -2.108928e-04 -2.089138e-04 -2.055582e-04 -2.005628e-04
          -5.076195e-05 -3.369333e-05 -2.226831e-05 -2.735072e-05 -3.153568e-05 -3.453353e-05
          -8.878928e-05 -2.531730e-04 -3.556182e-04 -4.585741e-04 -4.705767e-04 -4.304631e-04
          -1.916904e-04 -3.502427e-05 -2.329081e-05 -2.594171e-05 2.636404e-05 4.062052e-05
          3.765406e-05 3.526580e-05 1.284881e-06 -1.612236e-05 -1.291093e-05 -1.325740e-05
          -1.221126e-05 1.896344e-05 3.492287e-05 4.073810e-05 4.807560e-05 5.377538e-05
          1.239499e-05 -1.708056e-05 -1.878750e-05 -1.792732e-05 -1.429804e-05 -3.059002e-06
          1.378871e-05 3.082654e-05 3.454091e-05 -9.369236e-05 -2.881483e-04 -4.388588e-04
          -4.792453e-04 -4.813179e-04 -4.772729e-04 -4.782902e-04 -4.788389e-04 -4.524917e-04
          -3.688222e-04 -3.634061e-04 -3.598722e-04 -3.587221e-04 -3.484658e-04 -3.151905e-04
          -2.205480e-04 -1.060452e-04 -2.004894e-04 -3.334013e-04 -3.581284e-04 -2.962963e-04
          5.311266e-05 2.687426e-04 2.926728e-04 2.908461e-04 3.202951e-04 3.396783e-04
          3.394286e-04 3.346044e-04 3.158085e-04 3.011295e-04 3.197806e-04 3.216522e-04
          3.232327e-04 3.585360e-04 3.667051e-04 3.679068e-04 3.688769e-04 3.681515e-04
          3.404414e-04 3.174900e-04 3.150371e-04 3.127432e-04 3.014011e-04 2.856191e-04
          2.862866e-04 2.997689e-04 3.019806e-04 1.979535e-04 -1.737103e-04 -3.668181e-04
          -3.893733e-04 -3.895105e-04 -3.838706e-04 -3.792051e-04 -3.736703e-04 -3.128737e-04
          -4.932357e-04 -5.003780e-04 -5.042451e-04 -4.985075e-04 -4.813236e-04 -4.330218e-04
          -2.618404e-04 3.526677e-05 -2.155112e-05 -1.344482e-04 -1.617197e-04 -1.099859e-04
          1.701114e-04 3.337391e-04 3.586707e-04 3.639477e-04 4.003005e-04 4.558485e-04
          4.616374e-04 4.559522e-04 4.401623e-04 3.652332e-04 3.846024e-04 3.875919e-04
          3.926168e-04 4.916048e-04 5.012966e-04 4.980458e-04 4.914160e-04 4.788073e-04