<?xml version="1.0"?>
<VTKFile type="RectilinearGrid" version="0.1" byte_order="LittleEndian">
  <RectilinearGrid WholeExtent="0 47 0 47 0 47">
    <Piece Extent="0 47 0 47 0 47">
      <PointData Scalars="concentration">
        <DataArray type="Float32" Name="concentration" NumberOfComponents="1" format="ascii">
          1.233054e-04 1.414758e-04 1.506239e-04 1.389528e-04 1.221312e-04 8.861686e-05
          3.414219e-05 -6.749081e-05 -6.031712e-05 -4.822802e-05 -3.660130e-05 -6.758105e-05
          -2.316458e-04 -3.263260e-04 -3.567515e-04 -3.682018e-04 -2.229914e-04 -1.129544e-04
          -1.049323e-04 -1.026738e-04 -1.625866e-04 -3.352166e-04 -3.660787e-04 -3.689883e-04
          -3.604828e-04 -1.755292e-04 -1.369540e-04 -1.313675e-04 -1.269384e-04 -1.366585e-04
          -2.682801e-04 -3.771502e-04 -3.854916e-04 -3.806845e-04 -3.620290e-04 -3.320403e-04
          -3.113213e-04 -2.872738e-04 -2.504533e-04 -2.421281e-04 -2.226417e-05 9.457826e-06
          -1.381663e-05 -1.493873e-05 -1.725972e-05 -2.492647e-05 -3.332464e-05 -6.727879e-05
          1.994537e-04 2.154634e-04 2.245390e-04 2.143054e-04 1.973122e-04 1.606671e-04
          6.841074e-05 -9.815507e-05 -9.474110e-05 -7.456286e-05 -6.203258e-05 -9.351232e-05
          -2.605605e-04 -3.564695e-04 -3.821562e-04 -3.887080e-04 -2.711829e-04 -1.863671e-04
          -1.806897e-04 -1.782988e-04 -2.288879e-04 -3.678351e-04 -3.961833e-04 -3.989373e-04
          -3.922757e-04 -2.460861e-04 -2.140828e-04 -2.087010e-04 -2.040521e-04 -2.105344e-04
          -3.164907e-04 -4.028113e-04 -4.087365e-04 -4.044331e-04 -3.859252e-04 -3.548073e-04
          -3.342418e-04 -3.166754e-04 -2.883926e-04 -2.797230e-04 -5.408275e-05 -1.479944e-05
          -3.744894e-05 -3.928068e-05 -4.191931e-05 -4.918797e-05 -5.711200e-05 -9.306318e-05
          1.824062e-04 3.912861e-04 4.668358e-04 3.611307e-04 2.535747e-04 8.071246e-05
          1.933272e-04 -1.426134e-04 -1.073663e-04 -1.254126e-04 -2.935535e-05 -7.703030e-05
          -1.791664e-04 -1.417709e-04 -4.013459e-04 -6.829585e-04 -1.592009e-04 -4.923206e-05
          -6.750061e-05 -3.865383e-05 -2.209039e-04 -1.609859e-04 -2.899025e-04 -3.133373e-04
          -3.215375e-04 -3.545746e-04 -2.501643e-04 -1.913691e-04 -9.873279e-05 -2.070444e-05
          -3.290135e-04 -5.670503e-04 -6.095496e-04 -5.624185e-04 -4.397631e-04 -2.932551e-04
          -1.902564e-04 7.496929e-05 2.267322e-04 -6.756255e-04 1.316367e-04 2.009541e-04
          6.079119e-05 1.013884e-04 1.164648e-04 5.466678e-05 -1.950326e-05 -2.610837e-04
          1.713024e-04 -7.114818e-06 -6.675232e-05 2.093600e-05 9.968020e-05 2.110644e-04
          -5.378944e-05 -1.848354e-05 -4.772438e-05 7.530538e-06 -6.498205e-05 -6.353264e-05
          -1.992229e-04 -3.677213e-04 -1.527491e-04 1.089766e-04 -2.588088e-04 -2.762420e-04
          -2.538541e-04 -2.776688e-04 -1.622604e-04 -3.678392e-04 -2.814515e-04 -2.627893e-04
          -2.481504e-04 -6.394411e-05 -1.271960e-04 -1.759043e-04 -2.570100e-04 -3.360289e-04
          -1.583407e-04 -2.440415e-05 1.030210e-05 -2.899601e-05 -1.202519e-04 -2.162803e-04
          -2.868534e-04 -5.206180e-04 -6.350394e-04 2.311112e-04 -2.185976e-04 -2.192646e-04
          -1.153328e-04 -1.565293e-04 -1.747114e-04 -1.257911e-04 -6.581216e-05 1.113223e-04
          -3.411658e-05 1.121073e-04 1.635844e-04 8.808303e-05 1.388887e-05 -9.971356e-05
          5.560194e-05 -2.506525e-05 1.272077e-05 -1.199659e-05 5.237473e-05 1.346602e-05
          -9.369118e-05 -9.409522e-05 -2.839074e-04 -4.836087e-04 -4.037095e-05 1.180971e-04
          1.135953e-04 1.328283e-04 -2.211224e-05 -1.035090e-04 -2.017366e-04 -2.181074e-04
          -2.171619e-04 -1.033219e-04 -1.058795e-05 2.968686e-05 9.095123e-05 1.319655e-04
          -1.619861e-04 -3.973332e-04 -4.329091e-04 -3.998213e-04 -3.144014e-04 -2.140816e-04
          -1.419472e-04 5.334513e-05 1.821999e-04 -4.057383e-04 1.700063e-04 2.105802e-04
          1.128493e-04 1.412930e-04 1.512571e-04 1.076956e-04 5.588232e-05 -1.071329e-04
          -1.315480e-04 1.721890e-05 6.923898e-05 -8.392448e-06 -8.330112e-05 -1.947015e-04
          2.664501e-06 2.427780e-06 4.269301e-05 4.729153e-06 6.737683e-05 2.577631e-05
          -9.754841e-05 -1.095914e-04 -3.060058e-04 -5.088661e-04 -5.930679e-06 2.100060e-04
          2.108636e-04 2.295550e-04 5.194648e-05 -1.158307e-04 -2.207332e-04 -2.373553e-04
          -2.317604e-04 -2.154334e-05 8.669751e-05 1.272235e-04 1.871428e-04 2.197613e-04
          -1.328415e-04 -4.189453e-04 -4.588190e-04 -4.251866e-04 -3.385960e-04 -2.371166e-04
          -1.625638e-04 4.168442e-05 1.871720e-04 -3.834453e-04 2.003485e-04 2.285743e-04
          1.271134e-04 1.554359e-04 1.652098e-04 1.209219e-04 6.846868e-05 -9.151991e-05
          -3.342893e-05 -2.627774e-04 -3.411213e-04 -2.298987e-04 -1.256800e-04 3.138766e-05
          -1.977692e-04 6.504486e-05 3.488423e-05 7.604890e-05 -2.397799e-05 -2.230408e-05
          -2.039307e-04 -4.311924e-04 -1.621124e-04 1.712954e-04 -2.013405e-04 -1.170972e-04
          -7.750494e-05 -1.099686e-04 1.828974e-06 -4.224843e-04 -3.191614e-04 -2.949630e-04
          -2.673233e-04 1.492041e-04 9.381845e-05 2.998686e-05 -7.917373e-05 -1.985809e-04
          -7.259141e-05 9.417419e-06 4.627841e-05 -4.351240e-06 -1.240794e-04 -2.529716e-04
          -3.439992e-04 -6.313357e-04 -7.493453e-04 4.116793e-04 -1.963490e-04 -2.283961e-04
          -9.585785e-05 -1.490300e-04 -1.725160e-04 -1.091339e-04 -3.115628e-05 2.118082e-04
          -2.035285e-05 2.933030e-04 4.036512e-04 2.443612e-04 8.887660e-05 -1.494034e-04
          1.609557e-04 -9.016998e-05 -2.643553e-05 -8.393153e-05 5.315439e-05 -9.039129e-06
          -1.138286e-04 -3.291137e-05 -4.280434e-04 -8.606206e-04 -1.956787e-05 2.064712e-04
          1.855907e-04 2.274262e-04 -6.202004e-05 -5.090784e-05 -2.441348e-04 -2.788201e-04
          -2.865501e-04 -2.428643e-04 -7.381804e-05 1.299925e-05 1.488654e-04 2.556960e-04
          -2.615336e-04 -6.687463e-04 -7.382647e-04 -6.677722e-04 -4.891584e-04 -2.821100e-04
          -1.333400e-04 2.776760e-04 5.243304e-04 -8.189128e-04 3.110187e-04 3.808532e-04
          1.756708e-04 2.387513e-04 2.627235e-04 1.712171e-04 6.132021e-05 -2.829937e-04
          1.447300e-04 1.063505e-04 9.545530e-05 1.128921e-04 1.242992e-04 1.338854e-04
          1.835924e-05 -5.259947e-05 -5.682805e-05 -3.131657e-05 -4.362704e-05 -6.150371e-05
          -1.950829e-04 -2.962528e-04 -2.544208e-04 -1.889118e-04 -2.149530e-04 -1.658579e-04
          -1.560745e-04 -1.611059e-04 -1.607828e-04 -3.024998e-04 -2.960586e-04 -2.926842e-04
          -2.845397e-04 -1.435291e-04 -1.408960e-04 -1.509064e-04 -1.701181e-04 -1.957941e-04
          -2.138156e-04 -2.318114e-04 -2.263779e-04 -2.343833e-04 -2.482353e-04 -2.565143e-04
          -2.637576e-04 -3.152545e-04 -3.280159e-04 -8.957764e-05 -8.051444e-05 -5.847517e-05
          -4.337124e-05 -5.528090e-05 -6.167965e-05 -5.278650e-05 -4.129358e-05 -1.419596e-05
          2.389924e-04 2.630343e-04 2.743246e-04 2.621314e-04 2.442580e-04 2.066765e-04
          1.124256e-04 -1.109419e-04 -1.137722e-04 -9.329277e-05 -7.679556e-05 -9.332004e-05
          -1.652219e-04 -1.947021e-04 -2.223675e-04 -2.457459e-04 -2.043147e-04 -2.145609e-04
          -2.193543e-04 -2.150860e-04 -2.334287e-04 -2.056051e-04 -2.241066e-04 -2.273377e-04
          -2.296556e-04 -2.624341e-04 -2.532491e-04 -2.454594e-04 -2.332862e-04 -2.203389e-04
          -2.381465e-04 -2.479195e-04 -2.498061e-04 -2.440906e-04 -2.247413e-04 -1.960478e-04
          -1.780006e-04 -1.560102e-04 -1.470109e-04 -2.432047e-04 -6.851832e-05 -3.329104e-05
          -5.512561e-05 -5.268177e-05 -5.257871e-05 -6.095316e-05 -7.076233e-05 -1.132539e-04
          3.442130e-04 3.800840e-04 3.956731e-04 3.797758e-04 3.579939e-04 3.120199e-04
          1.869958e-04 -1.556074e-04 -1.677018e-04 -1.419027e-04 -1.184753e-04 -1.220032e-04
          -1.057280e-04 -7.012282e-05 -1.027606e-04 -1.459499e-04 -1.847427e-04 -3.032209e-04
          -3.204425e-04 -3.134815e-04 -2.988667e-04 -8.289565e-05 -9.352333e-05 -9.772499e-05
          -1.103362e-04 -3.461591e-04 -3.610250e-04 -3.494372e-04 -3.272890e-04 -2.908794e-04
          -2.125401e-04 -1.376907e-04 -1.349434e-04 -1.269075e-04 -1.035204e-04 -7.204800e-05
          -5.344508e-05 -2.508623e-05 -3.720204e-05 -2.594322e-04 -1.085257e-04 -7.081509e-05
          -9.566397e-05 -8.868297e-05 -8.574955e-05 -9.652622e-05 -1.098381e-04 -1.665419e-04
          3.855945e-04 3.945007e-04 4.000029e-04 3.993779e-04 3.933667e-04 3.713368e-04
          2.109469e-04 -1.515326e-04 -1.725847e-04 -1.368435e-04 -1.242252e-04 -1.103363e-04
          -1.327245e-05 6.290407e-05 7.003028e-05 5.887804e-05 -1.330290e-04 -3.544588e-04
          -3.780291e-04 -3.737932e-04 -3.011522e-04 5.169883e-05 6.928426e-05 6.836089e-05
          4.911947e-05 -3.399602e-04 -3.918976e-04 -3.876506e-04 -3.738278e-04 -3.327417e-04
          -1.258345e-04 5.613828e-05 6.963584e-05 7.144549e-05 7.665403e-05 8.421404e-05
          8.474520e-05 7.270980e-05 1.848498e-05 -1.443240e-04 -1.467806e-04 -1.147229e-04
          -1.161744e-04 -1.123511e-04 -1.098195e-04 -1.118335e-04 -1.151563e-04 -1.420442e-04
          3.942180e-04 3.896774e-04 3.896466e-04 3.968250e-04 3.995579e-04 3.914649e-04
          2.235327e-04 -1.353855e-04 -1.582911e-04 -1.163454e-04 -1.090297e-04 -8.435503e-05
          6.529025e-05 1.694631e-04 1.964809e-04 1.990776e-04 -8.187279e-05 -3.673332e-04
          -3.951619e-04 -3.921002e-04 -2.845070e-04 1.593880e-04 1.931028e-04 1.938758e-04
          1.701351e-04 -3.197263e-04 -3.940184e-04 -3.935205e-04 -3.834065e-04 -3.379190e-04
          -5.337989e-05 1.932986e-04 2.126507e-04 2.113939e-04 2.066677e-04 2.001049e-04
          1.899127e-04 1.577382e-04 7.985006e-05 -6.247578e-05 -1.527594e-04 -1.222677e-04
          -1.097534e-04 -1.068076e-04 -1.040731e-04 -1.015028e-04 -9.976690e-05 -1.114646e-04
          3.636188e-04 4.271330e-04 4.507376e-04 4.240272e-04 3.949059e-04 3.395983e-04
          2.504990e-04 -1.526588e-04 -1.668958e-04 -1.444903e-04 -1.090331e-04 -9.011556e-05
          8.133867e-05 2.310274e-04 1.754494e-04 8.210215e-05 -3.824963e-05 -2.969565e-04
          -3.315025e-04 -3.195069e-04 -2.656804e-04 2.195127e-04 2.162270e-04 2.097087e-04
          1.822917e-04 -3.387212e-04 -3.826145e-04 -3.633072e-04 -3.229421e-04 -2.505956e-04
          -5.549287e-05 1.221562e-04 1.275246e-04 1.413469e-04 1.732689e-04 2.077539e-04
          2.275875e-04 2.841626e-04 2.541590e-04 -2.011287e-04 -9.005700e-05 -5.643708e-05
          -8.708525e-05 -6.973664e-05 -6.083492e-05 -7.737954e-05 -9.889228e-05 -1.805542e-04
          3.568539e-04 2.962920e-04 2.775327e-04 3.124728e-04 3.420381e-04 3.758950e-04
          1.552414e-04 -1.392077e-04 -1.820458e-04 -1.446895e-04 -1.648940e-04 -1.321560e-04
          1.654490e-05 9.192744e-05 1.890943e-04 2.742085e-04 -1.012385e-04 -3.699037e-04
          -3.885900e-04 -3.941445e-04 -2.591870e-04 8.756322e-05 1.496200e-04 1.565214e-04
          1.392695e-04 -2.539060e-04 -3.423851e-04 -3.573430e-04 -3.738776e-04 -3.569365e-04
          -3.855521e-05 2.309690e-04 2.595925e-04 2.456202e-04 2.099246e-04 1.699672e-04
          1.374541e-04 3.503306e-05 -7.352400e-05 5.550699e-05 -2.294499e-04 -2.292073e-04
          -1.866830e-04 -1.971696e-04 -1.994241e-04 -1.805148e-04 -1.589708e-04 -1.039093e-04
          3.020909e-04 4.104413e-04 4.504588e-04 4.007406e-04 3.496819e-04 2.627320e-04
          2.298372e-04 -1.802508e-04 -1.960427e-04 -2.002508e-04 -1.490047e-04 -1.372393e-04
          2.717717e-05 1.914896e-04 8.067340e-05 -7.100576e-05 -3.080629e-05 -2.156072e-04
          -2.492609e-04 -2.324612e-04 -2.377196e-04 1.813082e-04 1.474729e-04 1.360902e-04
          1.112567e-04 -3.278141e-04 -3.360427e-04 -3.043358e-04 -2.463598e-04 -1.656411e-04
          -8.691005e-05 -3.762513e-06 -1.072509e-05 1.289624e-05 6.995070e-05 1.349362e-04
          1.785612e-04 2.968416e-04 3.117008e-04 -3.184980e-04 -6.563897e-05 -4.596966e-05
          -1.112797e-04 -8.642740e-05 -7.420387e-05 -1.034317e-04 -1.401002e-04 -2.630631e-04
          3.119439e-04 2.639672e-04 2.499664e-04 2.777088e-04 3.002637e-04 3.243621e-04
          1.283728e-04 -1.407399e-04 -1.819404e-04 -1.552030e-04 -1.715812e-04 -1.459722e-04
          -3.002828e-05 2.894397e-05 1.076804e-04 1.783501e-04 -1.140675e-04 -3.225711e-04
          -3.372135e-04 -3.418109e-04 -2.386866e-04 2.524537e-05 7.349226e-05 7.892879e-05
          6.581238e-05 -2.344627e-04 -3.024490e-04 -3.141260e-04 -3.272945e-04 -3.144820e-04
          -6.816825e-05 1.408859e-04 1.637382e-04 1.525614e-04 1.250716e-04 9.595248e-05
          7.227954e-05 -1.008813e-05 -9.604201e-05 9.256127e-06 -2.131337e-04 -2.178844e-04
          -1.874987e-04 -1.967062e-04 -1.987887e-04 -1.838752e-04 -1.667775e-04 -1.228575e-04
          2.863005e-04 2.505268e-04 2.408602e-04 2.617646e-04 2.774660e-04 2.916880e-04
          1.171753e-04 -1.353580e-04 -1.711426e-04 -1.485040e-04 -1.598067e-04 -1.412428e-04
          -5.713745e-05 -1.336775e-05 4.708604e-05 1.022077e-04 -1.255988e-04 -2.921014e-04
          -3.043639e-04 -3.076159e-04 -2.283233e-04 -1.771329e-05 1.855137e-05 2.255562e-05
          1.201183e-05 -2.281755e-04 -2.808299e-04 -2.893457e-04 -2.985474e-04 -2.870680e-04
          -9.386361e-05 7.084120e-05 8.900509e-05 8.060965e-05 6.109958e-05 4.185228e-05
          2.562174e-05 -3.831232e-05 -1.061647e-04 -3.147020e-05 -1.888973e-04 -1.904251e-04
          -1.697441e-04 -1.770043e-04 -1.788565e-04 -1.679449e-04 -1.552704e-04 -1.247426e-04
          2.206491e-04 4.933938e-04 5.902830e-04 4.569836e-04 3.259144e-04 1.194699e-04
          2.859023e-04 -1.916448e-04 -1.695155e-04 -2.093794e-04 -8.744302e-05 -1.060536e-04
          1.493892e-05 2.278221e-04 -9.198172e-05 -4.735392e-04 1.651528e-05 -3.915969e-05
          -8.270380e-05 -4.416248e-05 -2.027103e-04 2.104439e-04 7.575829e-05 4.637384e-05
          1.819855e-05 -3.835830e-04 -3.015659e-04 -2.248961e-04 -9.624095e-05 3.872722e-05
          -1.622796e-04 -3.009507e-04 -3.454962e-04 -2.850833e-04 -1.356289e-04 3.433487e-05
          1.539650e-04 4.907838e-04 6.386349e-04 -6.951234e-04 1.312829e-04 1.820528e-04
          1.121981e-05 7.020013e-05 9.521793e-05 1.810727e-05 -7.577962e-05 -3.754765e-04
          2.777073e-04 1.618934e-04 1.237249e-04 1.844806e-04 2.388503e-04 3.124076e-04
          6.959529e-05 -8.935084e-05 -1.317178e-04 -8.866212e-05 -1.337847e-04 -1.064353e-04
          -3.695793e-05 -4.051881e-05 1.161654e-04 2.814983e-04 -1.348329e-04 -3.315767e-04
          -3.356548e-04 -3.494883e-04 -2.056819e-04 -4.172041e-05 3.911603e-05 5.177954e-05
          4.551436e-05 -1.589865e-04 -2.479127e-04 -2.787907e-04 -3.237590e-04 -3.441285e-04
          -4.554780e-05 1.999001e-04 2.340136e-04 2.078731e-04 1.441152e-04 7.372828e-05
          2.042885e-05 -1.461666e-04 -2.692390e-04 1.706582e-04 -2.384677e-04 -2.462903e-04
          -1.727082e-04 -1.962063e-04 -2.049443e-04 -1.713075e-04 -1.310918e-04 -1.603774e-05
          2.261455e-04 2.212950e-04 2.183707e-04 2.251615e-04 2.313957e-04 2.357438e-04
          1.614065e-04 -2.872596e-05 -3.215856e-05 4.553990e-06 1.010503e-05 3.636438e-05
          1.923499e-04 2.973817e-04 3.179753e-04 3.119934e-04 5.349451e-05 -2.045828e-04
          -2.291071e-04 -2.263030e-04 -1.219557e-04 2.913332e-04 3.250686e-04 3.260427e-04
          3.041012e-04 -1.491230e-04 -2.195903e-04 -2.202342e-04 -2.117987e-04 -1.712178e-04
          9.184528e-05 3.175473e-04 3.338681e-04 3.325744e-04 3.248656e-04 3.095740e-04
          2.938958e-04 2.691567e-04 2.012543e-04 6.844164e-05 -4.669656e-05 -1.736518e-05
          2.845231e-06 8.107148e-06 1.139984e-05 1.432558e-05 1.654514e-05 1.069514e-05
          1.916233e-04 2.557933e-04 2.743908e-04 2.478730e-04 2.248395e-04 1.875691e-04
          2.233938e-04 1.849045e-05 4.118202e-05 7.588935e-05 1.132886e-04 1.409285e-04
          3.629736e-04 5.435343e-04 4.798457e-04 3.653863e-04 1.897614e-04 -1.219703e-04
          -1.606367e-04 -1.472711e-04 -6.061800e-05 5.345069e-04 5.411826e-04 5.349397e-04
          5.018321e-04 -1.349845e-04 -1.984821e-04 -1.803541e-04 -1.381056e-04 -5.707629e-05
          2.000227e-04 4.270761e-04 4.330725e-04 4.472407e-04 4.736898e-04 4.908299e-04
          4.969766e-04 5.600196e-04 5.229256e-04 2.348610e-05 8.115246e-05 1.355261e-04
          1.246121e-04 1.484383e-04 1.595814e-04 1.435707e-04 1.222235e-04 4.102040e-05
          2.520825e-04 -1.071822e-05 -1.053751e-04 3.129970e-05 1.636446e-04 3.602932e-04
          4.222838e-05 9.175800e-05 5.775335e-05 1.614156e-04 5.814390e-05 1.229526e-04
          2.929454e-04 2.858524e-04 6.233394e-04 9.709325e-04 4.111001e-05 -3.808996e-04
          -3.856218e-04 -4.164754e-04 -7.965570e-05 2.901633e-04 4.767306e-04 5.058284e-04
          4.919621e-04 3.780992e-05 -1.668715e-04 -2.391202e-04 -3.432611e-04 -3.943338e-04
          2.739764e-04 8.166786e-04 8.885868e-04 8.299110e-04 6.775919e-04 4.942436e-04
          3.562132e-04 -4.562038e-06 -2.679712e-04 7.314991e-04 -2.421301e-04 -2.380961e-04
          -4.514737e-05 -9.134693e-05 -1.088597e-04 -3.181402e-05 5.961403e-05 3.271346e-04
          1.499051e-04 3.985119e-04 4.815144e-04 3.618396e-04 2.490373e-04 7.591720e-05
          3.088466e-04 -2.544990e-05 3.217957e-05 2.778098e-05 1.445407e-04 1.415649e-04
          3.364360e-04 5.858668e-04 2.918724e-04 -7.923279e-05 2.235678e-04 2.856121e-05
          -2.394986e-05 1.385857e-05 -6.259765e-05 5.684218e-04 4.652604e-04 4.388504e-04
          3.996480e-04 -2.417941e-04 -2.108284e-04 -1.416346e-04 -1.892797e-05 1.275485e-04
          9.742323e-05 9.924438e-05 6.507945e-05 1.204960e-04 2.501901e-04 3.856204e-04
          4.770143e-04 7.819448e-04 8.860294e-04 -4.196689e-04 2.677680e-04 3.544692e-04
          2.245352e-04 2.861480e-04 3.122443e-04 2.429611e-04 1.574397e-04 -1.223736e-04
          9.060173e-05 8.162242e-05 7.635722e-05 8.244147e-05 8.876789e-05 9.653505e-05
          8.023257e-05 4.434836e-05 6.097585e-05 9.485974e-05 9.741668e-05 1.050103e-04
          1.462085e-04 1.719700e-04 1.842651e-04 1.858394e-04 4.463927e-05 -8.181591e-05
          -9.245604e-05 -9.130211e-05 -3.201254e-05 1.670347e-04 1.854635e-04 1.864858e-04
          1.759681e-04 -4.429132e-05 -8.282303e-05 -8.524126e-05 -8.421246e-05 -6.751953e-05
          7.019482e-05 1.865643e-04 1.952309e-04 1.934890e-04 1.864408e-04 1.731857e-04
          1.600351e-04 1.414051e-04 1.062163e-04 8.008480e-05 3.580033e-05 7.251769e-05
          9.258113e-05 9.502708e-05 9.586626e-05 9.862710e-05 1.012843e-04 9.964378e-05
          2.782325e-05 -2.029816e-05 -3.838773e-05 -1.539228e-05 5.977347e-06 3.641584e-05
          -3.182874e-06 6.721150e-05 8.512109e-05 1.205584e-04 1.048112e-04 9.698957e-05
          1.368100e-05 -6.126237e-05 -1.105177e-05 5.339003e-05 -4.785637e-05 -5.267924e-05
          -4.607080e-05 -5.144690e-05 -1.509172e-05 -6.475280e-05 -4.363624e-05 -3.888832e-05
          -3.537297e-05 6.702258e-06 -1.253390e-05 -2.617571e-05 -4.812751e-05 -6.950077e-05
          -1.789149e-05 1.997047e-05 2.872562e-05 1.865380e-05 -5.343355e-06 -3.332267e-05
          -5.556423e-05 -1.164476e-04 -1.446181e-04 9.965817e-05 2.457294e-05 5.690552e-05
          9.297475e-05 8.360579e-05 7.830030e-05 9.075925e-05 1.059125e-04 1.452854e-04
          1.705222e-05 1.686173e-04 2.197361e-04 1.430154e-04 6.892455e-05 -4.556403e-05
          1.214028e-04 1.981356e-05 7.470696e-05 7.367782e-05 1.450234e-04 1.124501e-04
          4.968234e-05 8.280584e-05 -1.125337e-04 -3.301207e-04 2.407618e-05 8.108188e-05
          6.642488e-05 8.834775e-05 -2.602186e-05 6.966230e-05 -1.949531e-05 -3.640950e-05
          -4.510955e-05 -1.239356e-04 -5.828908e-05 -1.668252e-05 5.106179e-05 1.113095e-04
          -8.287585e-05 -2.330828e-04 -2.641420e-04 -2.296063e-04 -1.437842e-04 -4.830320e-05
          1.770036e-05 2.147286e-04 3.233826e-04 -3.472105e-04 2.219518e-04 2.926207e-04
          2.046958e-04 2.381178e-04 2.501150e-04 2.055012e-04 1.514987e-04 -2.499810e-05
          6.639539e-05 -4.677778e-05 -8.739552e-05 -3.200958e-05 1.973289e-05 9.466131e-05
          -2.414980e-05 8.117290e-05 9.093133e-05 1.464681e-04 1.040679e-04 1.015401e-04
          -3.674143e-06 -1.225812e-04 6.703370e-06 1.629391e-04 -9.495475e-05 -1.287151e-04
          -1.160180e-04 -1.298156e-04 -4.090835e-05 -1.250750e-04 -6.846155e-05 -5.676255e-05
          -5.000452e-05 1.617560e-05 -3.289182e-05 -6.451245e-05 -1.152398e-04 -1.616914e-04
          -2.135680e-05 8.532350e-05 1.076748e-04 8.325479e-05 2.432576e-05 -4.269008e-05
          -9.356816e-05 -2.397292e-04 -3.145917e-04 2.277640e-04 -3.748982e-05 -6.533222e-06
          7.092256e-05 4.778309e-05 3.656491e-05 6.727769e-05 1.045793e-04 2.101320e-04
          -2.779366e-05 1.190307e-04 1.682112e-04 9.349657e-05 2.202955e-05 -8.676828e-05
          9.554488e-05 3.850892e-05 9.479522e-05 9.004451e-05 1.582773e-04 1.255073e-04
          5.662039e-05 8.249885e-05 -1.087473e-04 -3.201719e-04 4.336146e-05 1.202660e-04
          1.083093e-04 1.292722e-04 1.109959e-05 7.095758e-05 -1.742221e-05 -3.380151e-05
          -4.042274e-05 -8.028655e-05 -1.139568e-05 2.868891e-05 9.334180e-05 1.480453e-04
          -6.089687e-05 -2.246974e-04 -2.563670e-04 -2.228703e-04 -1.399343e-04 -4.811504e-05
          1.585935e-05 2.092621e-04 3.205179e-04 -3.177515e-04 2.348549e-04 3.004072e-04
          2.152645e-04 2.476166e-04 2.591113e-04 2.158692e-04 1.636316e-04 -5.477316e-06
          5.293777e-05 -8.877575e-06 -3.115704e-05 -1.196685e-06 2.626956e-05 6.512277e-05
          -3.652583e-06 5.049603e-05 6.113003e-05 9.813258e-05 7.637111e-05 7.104482e-05
          -8.830527e-06 -8.762546e-05 -1.897155e-05 6.634134e-05 -7.094238e-05 -8.564100e-05
          -7.824963e-05 -8.551987e-05 -3.800478e-05 -9.072507e-05 -6.155941e-05 -5.530752e-05
          -5.130191e-05 -8.840565e-06 -3.471117e-05 -5.198603e-05 -7.979444e-05 -1.058090e-04
          -3.272959e-05 2.245328e-05 3.448014e-05 2.130270e-05 -9.958559e-06 -4.526421e-05
          -7.269444e-05 -1.525886e-04 -1.922330e-04 1.113816e-04 -9.978507e-06 1.716648e-05
          6.020275e-05 4.756175e-05 4.103521e-05 5.743611e-05 7.742387e-05 1.315534e-04
          1.081861e-04 1.736346e-04 1.963366e-04 1.638293e-04 1.307858e-04 7.612730e-05
          1.050443e-04 -2.495094e-05 -3.828540e-06 8.009001e-06 4.161674e-05 2.823252e-05
          7.470220e-06 2.835792e-05 -5.305331e-05 -1.463198e-04 -3.723032e-05 -5.924093e-05
          -7.027678e-05 -5.997417e-05 -9.303442e-05 1.913652e-05 -1.572189e-05 -2.307974e-05
          -3.069755e-05 -1.440594e-04 -1.271297e-04 -1.087406e-04 -7.736397e-05 -4.354122e-05
          -8.234754e-05 -1.076857e-04 -1.178302e-04 -1.028472e-04 -6.499086e-05 -2.204913e-05
          6.238911e-06 8.594671e-05 1.203251e-04 -1.911527e-04 6.375872e-05 1.070291e-04
          6.993393e-05 8.469181e-05 8.997534e-05 7.053312e-05 4.691405e-05 -3.543074e-05
          7.149165e-05 1.299098e-04 1.506242e-04 1.218634e-04 9.320357e-05 4.692638e-05
          7.568300e-05 -3.805346e-05 -2.890537e-05 -3.023539e-05 -2.667296e-06 -9.430419e-06
          1.170063e-06 3.756067e-05 -3.217651e-05 -1.143187e-04 -1.379651e-05 -3.056996e-05
          -4.032121e-05 -3.168110e-05 -6.352045e-05 3.210761e-05 2.496466e-06 -3.850656e-06
          -1.032595e-05 -1.051077e-04 -8.882476e-05 -7.236524e-05 -4.451997e-05 -1.475724e-05
          -5.300099e-05 -7.847114e-05 -8.769610e-05 -7.457352e-05 -4.185750e-05 -4.499347e-06
          2.111265e-05 9.264140e-05 1.233667e-04 -1.607773e-04 3.474125e-05 5.569862e-05
          2.014683e-05 3.295377e-05 3.810878e-05 2.124536e-05 7.699396e-07 -6.701400e-05
          6.655764e-05 2.593332e-05 1.335178e-05 3.404533e-05 5.239744e-05 7.775714e-05
          -5.596736e-06 -4.715084e-05 -6.874818e-05 -6.502636e-05 -8.319516e-05 -7.583606e-05
          -6.577572e-05 -7.767772e-05 -2.299504e-05 3.887902e-05 -6.471967e-05 -9.045513e-05
          -8.782862e-05 -9.354686e-05 -6.162946e-05 -7.608809e-05 -5.253381e-05 -4.804888e-05
          -4.640225e-05 -3.896422e-05 -5.802692e-05 -6.876965e-05 -8.628191e-05 -1.005635e-04
          -4.033216e-05 7.969685e-06 1.752484e-05 8.270194e-06 -1.338043e-05 -3.523204e-05
          -5.072109e-05 -1.066235e-04 -1.396525e-04 3.797684e-05 -1.003635e-04 -1.168569e-04
          -9.623626e-05 -1.060829e-04 -1.096126e-04 -9.791223e-05 -8.366461e-05 -3.928141e-05
          4.504740e-05 4.462454e-05 4.694187e-05 4.727632e-05 4.570463e-05 4.122778e-05
          -5.928396e-06 -8.302557e-05 -1.071649e-04 -1.233381e-04 -1.264160e-04 -1.246926e-04
          -1.155446e-04 -1.100317e-04 -1.036507e-04 -9.404396e-05 -7.102526e-05 -4.881951e-05
          -4.724170e-05 -4.838220e-05 -6.287658e-05 -1.083449e-04 -1.105113e-04 -1.103818e-04
          -1.079607e-04 -5.851160e-05 -5.019952e-05 -4.966081e-05 -5.055391e-05 -5.427536e-05
          -8.055394e-05 -1.013807e-04 -1.016398e-04 -1.021260e-04 -1.010923e-04 -9.528052e-05
          -8.974216e-05 -9.221597e-05 -8.991676e-05 -7.856366e-05 -8.956832e-05 -1.147024e-04
          -1.247060e-04 -1.276229e-04 -1.280561e-04 -1.277685e-04 -1.271693e-04 -1.216914e-04
          -6.321720e-05 6.908226e-05 1.171783e-04 5.016604e-05 -1.476565e-05 -1.121679e-04
          1.726311e-05 -8.755871e-05 -8.498972e-05 -1.389511e-04 -8.712832e-05 -1.060991e-04
          -1.106598e-04 -5.361320e-05 -2.146030e-04 -3.910419e-04 7.003358e-07 1.331865e-04
          1.274883e-04 1.434182e-04 2.906985e-06 -5.505008e-05 -1.375363e-04 -1.518310e-04
          -1.516434e-04 -6.197565e-05 2.053645e-05 5.741215e-05 1.131499e-04 1.521345e-04
          -1.057210e-04 -3.107319e-04 -3.419122e-04 -3.127793e-04 -2.385356e-04 -1.499895e-04
          -8.365245e-05 9.163719e-05 2.028465e-04 -3.563430e-04 6.942995e-05 5.676414e-05
          -3.879822e-05 -1.439225e-05 -3.949490e-06 -4.171628e-05 -8.694131e-05 -2.192202e-04
          -1.494962e-04 -2.754056e-04 -3.181241e-04 -2.574978e-04 -1.985759e-04 -1.049219e-04
          -1.890370e-04 3.880588e-05 9.731990e-06 2.372480e-06 -5.900607e-05 -5.327948e-05
          -1.287876e-04 -2.420846e-04 -9.329047e-05 9.220809e-05 -5.277579e-05 5.556547e-05
          8.323891e-05 6.361948e-05 1.002065e-04 -2.299142e-04 -1.764758e-04 -1.628891e-04
          -1.423852e-04 1.962451e-04 1.821751e-04 1.469229e-04 8.419516e-05 8.325475e-06
          1.539132e-05 6.810423e-06 2.301807e-05 -5.185962e-06 -7.269253e-05 -1.449580e-04
          -1.929973e-04 -3.445775e-04 -3.942072e-04 2.647137e-04 -1.142386e-04 -1.703402e-04
          -1.034118e-04 -1.341341e-04 -1.467167e-04 -1.111296e-04 -6.731053e-05 8.015190e-05
          -2.766642e-04 -3.361180e-05 5.002192e-05 -7.431868e-05 -1.903325e-04 -3.580420e-04
          -2.865914e-06 1.654401e-05 6.880414e-05 -9.375375e-06 8.905297e-05 4.705694e-05
          -3.736722e-06 7.188929e-05 -2.383911e-04 -5.783963e-04 1.491360e-04 4.057263e-04
          3.978891e-04 4.283873e-04 1.773462e-04 6.851864e-05 -8.446462e-05 -1.108759e-04
          -1.103482e-04 5.824265e-05 2.081103e-04 2.744029e-04 3.757720e-04 4.448794e-04
          -3.308143e-05 -4.170414e-04 -4.773017e-04 -4.229535e-04 -2.886514e-04 -1.365027e-04
          -2.358855e-05 3.071217e-04 5.209387e-04 -4.934063e-04 3.177112e-04 3.327608e-04
          1.740374e-04 2.232171e-04 2.426740e-04 1.728182e-04 8.890085e-05 -1.596209e-04
          -1.499148e-04 -1.587807e-04 -1.612853e-04 -1.601460e-04 -1.588424e-04 -1.536873e-04
          -1.118698e-04 3.625441e-05 4.247152e-05 2.549767e-05 1.753438e-05 -1.497911e-06
          -1.240930e-04 -2.116383e-04 -2.127444e-04 -1.926637e-04 -4.378750e-05 1.289011e-04
          1.470785e-04 1.438330e-04 8.261057e-05 -2.081156e-04 -2.253943e-04 -2.247766e-04
          -2.090826e-04 1.067955e-04 1.495402e-04 1.464920e-04 1.352883e-04 1.025934e-04
          -6.176718e-05 -2.043309e-04 -2.132121e-04 -2.148643e-04 -2.158631e-04 -2.128453e-04
          -2.079295e-04 -2.064117e-04 -1.677347e-04 -1.785000e-05 3.707766e-05 2.374900e-05
          1.908025e-05 1.327426e-05 9.777053e-06 1.094877e-05 1.336840e-05 2.780646e-05
          1.422977e-05 2.424128e-05 2.961646e-05 2.206963e-05 1.189678e-05 -6.940012e-06
          -2.087426e-05 -3.133673e-05 -2.714465e-05 -2.930942e-05 -2.477617e-05 -4.807449e-05
          -1.764141e-04 -2.546987e-04 -2.750410e-04 -2.781946e-04 -1.376643e-04 -1.442773e-05
          -4.044877e-06 -3.585759e-06 -6.117453e-05 -2.580207e-04 -2.827853e-04 -2.844153e-04
          -2.743422e-04 -6.103529e-05 -2.310160e-05 -2.027478e-05 -2.034433e-05 -3.593471e-05
          -1.713082e-04 -2.853423e-04 -2.936366e-04 -2.909735e-04 -2.793483e-04 -2.596718e-04
          -2.448969e-04 -2.270328e-04 -1.910161e-04 -1.490260e-04 -3.463283e-06 6.410445e-06
          -1.085354e-05 -1.290318e-05 -1.512107e-05 -1.986907e-05 -2.465239e-05 -4.064226e-05
          2.737924e-04 2.744289e-04 2.771689e-04 2.774209e-04 2.718502e-04 2.519482e-04
          1.253796e-04 -1.054061e-04 -1.120353e-04 -8.066432e-05 -7.313766e-05 -8.194357e-05
          -1.268015e-04 -1.490678e-04 -1.455127e-04 -1.387458e-04 -1.955896e-04 -2.595077e-04
          -2.663872e-04 -2.646493e-04 -2.466690e-04 -1.596575e-04 -1.596278e-04 -1.601663e-04
          -1.651949e-04 -2.668452e-04 -2.803165e-04 -2.789291e-04 -2.753305e-04 -2.641276e-04
          -2.063696e-04 -1.540244e-04 -1.484969e-04 -1.480341e-04 -1.426567e-04 -1.311383e-04
          -1.263045e-04 -1.374424e-04 -1.559223e-04 -1.734700e-04 -9.389230e-05 -5.749222e-05
          -6.116474e-05 -6.247327e-05 -6.360750e-05 -6.504871e-05 -6.675084e-05 -8.567140e-05
          2.269938e-04 2.126860e-04 2.080838e-04 2.166533e-04 2.214596e-04 2.206801e-04
          1.207779e-04 -4.059742e-05 -3.802232e-05 2.449151e-06 4.485180e-06 5.606351e-06
          6.587222e-06 6.522761e-06 2.814695e-05 4.660959e-05 -9.729184e-05 -2.185281e-04
          -2.285218e-04 -2.280737e-04 -1.734245e-04 -2.402813e-06 1.436305e-05 1.567873e-05