<?xml version="1.0"?>
<VTKFile type="RectilinearGrid" version="0.1" byte_order="LittleEndian">
  <RectilinearGrid WholeExtent="0 47 0 47 0 47">
    <Piece Extent="0 47 0 47 0 47">
      <PointData Scalars="concentration">
        <DataArray type="Float32" Name="concentration" NumberOfComponents="1" format="ascii">
          1.409055e-04 1.633763e-04 1.761112e-04 1.666286e-04 1.538692e-04 1.294219e-04
          3.524329e-05 -2.029622e-04 -2.575984e-04 -2.949552e-04 -2.907595e-04 -2.794269e-04
          -1.943563e-04 -1.279294e-04 -1.368254e-04 -1.518094e-04 -1.157025e-04 -1.298950e-04
          -1.355758e-04 -1.343279e-04 -1.569608e-04 -1.253609e-04 -1.330380e-04 -1.352129e-04
          -1.373092e-04 -1.672155e-04 -1.573555e-04 -1.496625e-04 -1.383414e-04 -1.252624e-04
          -1.416164e-04 -1.492158e-04 -1.501865e-04 -1.463192e-04 -1.333421e-04 -1.105742e-04
          -9.180250e-05 -7.190584e-05 -6.886006e-05 -1.982013e-04 -1.959965e-04 -2.492812e-04
          -2.822191e-04 -2.816232e-04 -2.794671e-04 -2.846071e-04 -2.908853e-04 -3.036660e-04
          -9.506847e-05 -7.192778e-05 -6.266688e-05 -7.121635e-05 -7.627812e-05 -7.746852e-05
          -4.721601e-05 -8.986471e-05 -1.377343e-04 -1.983498e-04 -1.996281e-04 -1.672256e-04
          3.637988e-05 1.745495e-04 1.658782e-04 1.357439e-04 1.417320e-04 9.951238e-05
          9.151288e-05 9.252159e-05 8.863118e-05 1.872742e-04 1.913742e-04 1.900524e-04
          1.847578e-04 8.950146e-05 8.777254e-05 9.452747e-05 1.064774e-04 1.242731e-04
          1.422299e-04 1.610244e-04 1.595526e-04 1.629972e-04 1.682499e-04 1.729958e-04
          1.809214e-04 2.083629e-04 2.080246e-04 3.022910e-05 -1.002373e-04 -1.849302e-04
          -2.072957e-04 -2.021965e-04 -1.972070e-04 -2.002400e-04 -2.047483e-04 -2.006085e-04
          -2.618068e-04 -4.485115e-05 2.976528e-05 -7.508429e-05 -1.683358e-04 -2.962611e-04
          8.979847e-06 -7.684868e-05 -8.855472e-05 -2.044039e-04 -1.257544e-04 -1.057366e-04
          1.818609e-04 4.626215e-04 2.161873e-04 -9.405390e-05 3.562776e-04 3.789366e-04
          3.509645e-04 3.778163e-04 2.298741e-04 4.730638e-04 3.750820e-04 3.532826e-04
          3.362047e-04 1.246434e-04 2.042537e-04 2.639901e-04 3.623505e-04 4.583730e-04
          2.364455e-04 6.989007e-05 2.839603e-05 7.468087e-05 1.820696e-04 2.970347e-04
          3.856073e-04 6.685586e-04 8.037682e-04 -2.774343e-04 1.388351e-04 6.526251e-05
          -7.355598e-05 -2.515940e-05 -1.941538e-06 -5.907802e-05 -1.293823e-04 -3.220933e-04
          -1.981932e-04 -3.671664e-04 -4.257155e-04 -3.382282e-04 -2.485357e-04 -1.013024e-04
          -2.178580e-04 -4.751959e-06 -8.814227e-05 -1.286444e-04 -2.171993e-04 -1.545054e-04
          6.366880e-05 1.173637e-04 3.446426e-04 5.825096e-04 1.641611e-04 7.857609e-05
          9.263563e-05 6.689013e-05 2.045789e-04 1.443568e-04 2.561983e-04 2.761009e-04
          2.837837e-04 3.287145e-04 2.479678e-04 2.010153e-04 1.257312e-04 6.219880e-05
          3.028866e-04 4.896627e-04 5.248639e-04 4.850549e-04 3.819908e-04 2.622168e-04
          1.826496e-04 -3.384030e-05 -1.608801e-04 5.395974e-04 -2.577779e-04 -3.982483e-04
          -2.996291e-04 -3.348782e-04 -3.458163e-04 -2.932157e-04 -2.302837e-04 -9.388209e-06
          -1.423245e-04 1.428432e-05 7.118782e-05 -5.047586e-06 -7.546326e-05 -1.758865e-04
          -1.234115e-05 -1.568687e-04 -1.925212e-04 -2.965965e-04 -2.433797e-04 -2.327711e-04
          -4.900228e-05 1.378945e-04 -3.545368e-05 -2.457927e-04 1.419876e-04 2.203538e-04
          2.054447e-04 2.232670e-04 8.471751e-05 1.469604e-04 6.819606e-05 5.233420e-05
          4.610729e-05 1.602178e-05 9.325616e-05 1.369475e-04 2.057240e-04 2.648701e-04
          3.702820e-05 -1.390835e-04 -1.713450e-04 -1.384049e-04 -5.790432e-05 3.544078e-05
          1.087660e-04 3.123241e-04 4.216736e-04 -3.219404e-04 -4.469518e-06 -8.604084e-05
          -2.011363e-04 -1.705973e-04 -1.551445e-04 -1.967192e-04 -2.471752e-04 -3.810322e-04
          3.272455e-05 1.919286e-04 2.529660e-04 1.748097e-04 9.748856e-05 -2.185500e-05
          4.491165e-05 -2.633001e-04 -3.121433e-04 -4.072303e-04 -3.500679e-04 -3.519366e-04
          -2.356673e-04 -8.771941e-05 -2.621883e-04 -4.639311e-04 -4.782332e-05 5.069075e-05
          3.684080e-05 5.492978e-05 -1.007269e-04 -8.482352e-05 -1.727971e-04 -1.895139e-04
          -1.935580e-04 -1.776455e-04 -9.039009e-05 -4.501906e-05 2.475643e-05 8.195124e-05
          -1.745619e-04 -3.723012e-04 -4.045145e-04 -3.708192e-04 -2.833463e-04 -1.745886e-04
          -9.114320e-05 1.101598e-04 2.228915e-04 -5.042776e-04 -9.881075e-05 -1.685702e-04
          -2.958286e-04 -2.684192e-04 -2.545790e-04 -2.982778e-04 -3.506982e-04 -4.970366e-04
          1.539921e-04 -6.602311e-05 -1.361912e-04 -2.482919e-05 7.749831e-05 2.268712e-04
          -1.348794e-04 -1.853388e-04 -2.975337e-04 -3.030937e-04 -4.070039e-04 -3.662696e-04
          -3.115984e-04 -3.806115e-04 -8.929837e-05 2.440328e-04 -2.401930e-04 -2.965891e-04
          -2.736209e-04 -3.062409e-04 -1.615237e-04 -3.646368e-04 -2.420069e-04 -2.178264e-04
          -2.018898e-04 -2.149078e-05 -1.048657e-04 -1.641449e-04 -2.629617e-04 -3.544292e-04
          -1.073675e-04 8.410389e-05 1.300530e-04 7.942462e-05 -4.000780e-05 -1.633502e-04
          -2.478101e-04 -5.406511e-04 -6.971186e-04 3.021419e-04 -4.784854e-04 -5.951798e-04
          -4.842168e-04 -5.375524e-04 -5.568750e-04 -4.928487e-04 -4.147720e-04 -1.611812e-04
          -5.325292e-05 2.678794e-04 3.823247e-04 2.238115e-04 7.243377e-05 -1.546594e-04
          1.426428e-04 -2.086124e-04 -2.063577e-04 -3.206197e-04 -1.912861e-04 -2.076640e-04
          -4.180688e-05 2.143176e-04 -1.628044e-04 -6.052806e-04 1.349439e-04 2.394954e-04
          2.048616e-04 2.460322e-04 -7.901000e-06 2.100372e-04 3.976972e-05 5.720614e-06
          -1.271683e-05 -1.846729e-04 -4.335172e-05 4.624948e-05 1.901921e-04 3.207733e-04
          -8.582697e-05 -3.959118e-04 -4.591776e-04 -3.890378e-04 -2.158740e-04 -1.716750e-05
          1.294795e-04 5.419447e-04 7.580006e-04 -7.420331e-04 1.542321e-04 1.306758e-04
          -8.489967e-05 -1.904965e-05 1.020096e-05 -7.928089e-05 -1.876730e-04 -5.098654e-04
          -5.503643e-05 -8.700389e-05 -9.653253e-05 -7.813623e-05 -5.854373e-05 -2.441130e-05
          -6.535828e-05 -7.827517e-05 -1.302930e-04 -1.712439e-04 -1.944625e-04 -1.622667e-04
          -4.273380e-06 7.937879e-05 1.356861e-04 1.846628e-04 7.589082e-05 2.741942e-05
          2.643715e-05 2.023810e-05 5.358985e-05 9.188307e-05 1.226894e-04 1.271354e-04
          1.261706e-04 8.440146e-05 6.235117e-05 5.392449e-05 4.086927e-05 3.435812e-05
          1.088899e-04 1.701521e-04 1.792096e-04 1.706137e-04 1.474793e-04 1.215430e-04
          1.067119e-04 6.262770e-05 2.746560e-05 1.171411e-04 -1.491013e-04 -2.294965e-04
          -2.179204e-04 -2.252081e-04 -2.256489e-04 -2.137994e-04 -1.998291e-04 -1.417814e-04
          -1.281607e-04 -9.899810e-05 -8.856919e-05 -9.990675e-05 -1.063635e-04 -1.079731e-04
          -4.770973e-05 -5.950504e-05 -1.001740e-04 -1.601256e-04 -1.585831e-04 -1.238791e-04
          9.774744e-05 2.500313e-04 2.331715e-04 1.902841e-04 1.935169e-04 1.370250e-04
          1.270116e-04 1.291789e-04 1.295119e-04 2.631762e-04 2.668616e-04 2.650826e-04
          2.577707e-04 1.263075e-04 1.216200e-04 1.298042e-04 1.450716e-04 1.679290e-04
          1.964073e-04 2.241541e-04 2.219820e-04 2.267572e-04 2.339327e-04 2.384207e-04
          2.459647e-04 2.819273e-04 2.828141e-04 6.476590e-05 -6.376392e-05 -1.447314e-04
          -1.666567e-04 -1.589734e-04 -1.528453e-04 -1.574729e-04 -1.637943e-04 -1.654955e-04
          -1.382743e-04 -9.989492e-05 -8.657634e-05 -1.020091e-04 -1.115836e-04 -1.171357e-04
          -4.071798e-05 -5.726361e-05 -9.816086e-05 -1.618351e-04 -1.567295e-04 -1.179356e-04
          1.347851e-04 3.113737e-04 2.851507e-04 2.271666e-04 2.295336e-04 1.535551e-04
          1.403170e-04 1.438757e-04 1.465703e-04 3.251517e-04 3.276859e-04 3.251176e-04
          3.151975e-04 1.373935e-04 1.302824e-04 1.409712e-04 1.612997e-04 1.915735e-04
          2.316008e-04 2.700867e-04 2.672955e-04 2.739669e-04 2.848427e-04 2.920593e-04
          3.016948e-04 3.487892e-04 3.504834e-04 7.223290e-05 -5.441733e-05 -1.382304e-04
          -1.640320e-04 -1.535296e-04 -1.459857e-04 -1.528076e-04 -1.618907e-04 -1.715734e-04
          7.118196e-05 7.686975e-05 8.193740e-05 8.182861e-05 8.120124e-05 7.902842e-05
          1.518497e-05 -1.441373e-04 -1.958514e-04 -2.318045e-04 -2.356310e-04 -2.103833e-04
          -5.947452e-05 4.051765e-05 5.370094e-05 5.337033e-05 6.232003e-07 -6.910358e-05
          -7.776753e-05 -7.823924e-05 -6.397905e-05 4.680339e-05 5.783910e-05 5.806689e-05
          5.210652e-05 -6.455123e-05 -7.760207e-05 -7.502778e-05 -6.929264e-05 -5.490453e-05
          3.315457e-06 5.628607e-05 6.080978e-05 6.066828e-05 6.037148e-05 6.260362e-05
          6.681777e-05 6.549539e-05 4.614590e-05 -4.776402e-05 -1.657898e-04 -2.266723e-04
          -2.406712e-04 -2.405982e-04 -2.382152e-04 -2.376286e-04 -2.370857e-04 -2.272566e-04
          2.924401e-04 2.783199e-04 2.793726e-04 2.876513e-04 2.887842e-04 2.782493e-04
          8.768707e-05 -2.192158e-04 -2.706121e-04 -2.722292e-04 -2.775888e-04 -2.734167e-04
          -2.567502e-04 -2.475709e-04 -2.142195e-04 -1.755233e-04 -2.446292e-04 -2.942516e-04
          -2.985770e-04 -3.010324e-04 -2.879009e-04 -2.515891e-04 -2.421019e-04 -2.407157e-04
          -2.426971e-04 -2.897095e-04 -3.007932e-04 -3.028069e-04 -3.062645e-04 -3.041395e-04
          -2.529448e-04 -2.057968e-04 -1.971926e-04 -2.009613e-04 -2.041290e-04 -1.973218e-04
          -1.924308e-04 -2.249118e-04 -2.533184e-04 -2.092614e-04 -2.431108e-04 -2.642250e-04
          -2.731869e-04 -2.808126e-04 -2.829816e-04 -2.791950e-04 -2.741370e-04 -2.633510e-04
          3.003232e-04 3.520802e-04 3.748771e-04 3.497640e-04 3.188477e-04 2.591211e-04
          1.493654e-04 -1.895472e-04 -2.097996e-04 -2.049269e-04 -1.779685e-04 -1.887474e-04
          -2.032625e-04 -1.818385e-04 -2.350069e-04 -2.936130e-04 -2.206602e-04 -2.573845e-04
          -2.690662e-04 -2.616161e-04 -2.920784e-04 -1.926394e-04 -2.209353e-04 -2.269647e-04
          -2.338945e-04 -3.388874e-04 -3.251281e-04 -3.091026e-04 -2.826729e-04 -2.524415e-04
          -2.727086e-04 -2.800435e-04 -2.845539e-04 -2.730686e-04 -2.391570e-04 -1.922530e-04
          -1.603211e-04 -1.071405e-04 -9.043664e-05 -3.430597e-04 -1.231209e-04 -1.035928e-04
          -1.476068e-04 -1.399393e-04 -1.366999e-04 -1.524038e-04 -1.710714e-04 -2.396112e-04
          2.377076e-04 1.652623e-04 1.417403e-04 1.788443e-04 2.102512e-04 2.489986e-04
          7.711181e-05 -4.907561e-05 -6.268143e-05 -1.624042e-05 -4.031709e-05 -3.438799e-05
          -5.337581e-05 -9.399261e-05 -7.689196e-07 1.029456e-04 -1.503053e-04 -2.666583e-04
          -2.683272e-04 -2.764184e-04 -1.889190e-04 -9.993395e-05 -5.421439e-05 -4.671079e-05
          -5.027840e-05 -1.663129e-04 -2.198724e-04 -2.389186e-04 -2.669635e-04 -2.808234e-04
          -1.010553e-04 4.671722e-05 6.793807e-05 5.219444e-05 1.516696e-05 -2.442686e-05
          -5.610433e-05 -1.609567e-04 -2.356218e-04 5.747258e-05 -1.299337e-04 -1.059400e-04
          -5.855266e-05 -7.349739e-05 -7.998467e-05 -6.006587e-05 -3.611080e-05 2.494426e-05
          1.448053e-04 2.420071e-04 2.753952e-04 2.279031e-04 1.806981e-04 1.041930e-04
          1.605839e-04 -2.384762e-05 6.440221e-06 2.258308e-05 7.217508e-05 6.060745e-05
          7.877770e-05 1.412666e-04 2.307690e-05 -1.199660e-04 2.867617e-06 -7.005528e-05
          -9.026375e-05 -7.488631e-05 -1.072564e-04 1.290457e-04 8.414176e-05 7.341624e-05
          5.828315e-05 -1.844711e-04 -1.705352e-04 -1.431400e-04 -9.491156e-05 -3.805957e-05
          -5.443612e-05 -5.704575e-05 -7.009631e-05 -4.786334e-05 6.027694e-06 6.459810e-05
          1.030219e-04 2.203678e-04 2.618864e-04 -2.329747e-04 1.019831e-04 1.613590e-04
          1.101070e-04 1.335567e-04 1.425848e-04 1.144430e-04 7.988765e-05 -4.015376e-05
          1.659053e-04 1.112825e-04 9.355388e-05 1.223921e-04 1.478456e-04 1.810532e-04
          5.355962e-05 -4.985463e-05 -6.986545e-05 -4.415933e-05 -6.419725e-05 -5.050364e-05
          -1.156647e-05 -8.448261e-06 6.663406e-05 1.438473e-04 -7.335666e-05 -1.882525e-04
          -1.923590e-04 -1.985797e-04 -1.226044e-04 -1.024813e-05 2.994364e-05 3.595428e-05
          3.088775e-05 -1.042399e-04 -1.518383e-04 -1.661879e-04 -1.862743e-04 -1.922204e-04
          -2.970061e-05 1.049195e-04 1.225084e-04 1.102349e-04 8.024052e-05 4.694962e-05
          2.127296e-05 -5.917955e-05 -1.228624e-04 7.260418e-05 -1.197768e-04 -1.178830e-04
          -8.203592e-05 -9.269290e-05 -9.665982e-05 -8.077624e-05 -6.185314e-05 -1.036318e-05
          1.459412e-04 1.103239e-04 1.019766e-04 1.226156e-04 1.402890e-04 1.627898e-04
          1.931220e-05 -1.705359e-04 -2.346294e-04 -2.575238e-04 -2.779296e-04 -2.493911e-04
          -1.117506e-04 -3.845826e-05 2.746172e-05 8.842310e-05 -7.032724e-05 -1.662758e-04
          -1.720929e-04 -1.778846e-04 -1.295212e-04 -3.245893e-05 1.323269e-06 5.934896e-06
          1.511106e-06 -1.096808e-04 -1.427646e-04 -1.513059e-04 -1.633230e-04 -1.635540e-04
          -4.296972e-05 5.971255e-05 7.382614e-05 6.444898e-05 4.279497e-05 2.290414e-05
          1.066181e-05 -4.723614e-05 -9.928655e-05 -6.810129e-06 -2.411104e-04 -3.043021e-04
          -2.947270e-04 -3.042320e-04 -3.057029e-04 -2.936380e-04 -2.790048e-04 -2.283984e-04
          1.101982e-04 3.841698e-04 4.844966e-04 3.506414e-04 2.201912e-04 1.845792e-05
          1.831866e-04 -2.906978e-04 -3.162137e-04 -4.157189e-04 -3.049237e-04 -3.107688e-04
          -1.196952e-04 1.336790e-04 -1.767622e-04 -5.474245e-04 2.739323e-05 5.457338e-05
          1.808306e-05 5.340463e-05 -1.461215e-04 1.283493e-04 -1.013002e-05 -3.894022e-05
          -5.965132e-05 -3.046136e-04 -1.975075e-04 -1.201442e-04 5.831786e-06 1.276378e-04
          -1.625609e-04 -3.761235e-04 -4.248767e-04 -3.655971e-04 -2.171626e-04 -4.336795e-05
          8.465213e-05 4.271709e-04 5.922275e-04 -7.259251e-04 1.035650e-05 -2.202077e-05
          -2.121473e-04 -1.571651e-04 -1.318170e-04 -2.077995e-04 -2.996033e-04 -5.755689e-04
          1.969324e-04 8.179112e-05 4.752894e-05 1.075486e-04 1.611472e-04 2.355333e-04
          -2.687371e-05 -2.042729e-04 -2.944861e-04 -3.079431e-04 -3.637015e-04 -3.289419e-04
          -2.206126e-04 -2.034864e-04 -3.804563e-05 1.419739e-04 -1.722753e-04 -2.678022e-04
          -2.630403e-04 -2.802462e-04 -1.855169e-04 -1.942584e-04 -1.208206e-04 -1.077036e-04
          -1.047486e-04 -1.167701e-04 -1.752090e-04 -2.054126e-04 -2.539492e-04 -2.907295e-04
          -1.002990e-04 5.439533e-05 8.362802e-05 5.638249e-05 -6.961886e-06 -7.000708e-05
          -1.125792e-04 -2.743787e-04 -3.764421e-04 9.833752e-05 -3.716513e-04 -4.574409e-04
          -4.053931e-04 -4.340783e-04 -4.432337e-04 -4.088522e-04 -3.667639e-04 -2.302253e-04
          2.440003e-04 2.316631e-04 2.328452e-04 2.386105e-04 2.373375e-04 2.238114e-04
          6.201772e-05 -1.768037e-04 -2.119889e-04 -2.085186e-04 -2.121767e-04 -2.209638e-04
          -2.789493e-04 -3.178882e-04 -2.952365e-04 -2.587211e-04 -2.628107e-04 -2.480433e-04
          -2.459641e-04 -2.483045e-04 -2.589297e-04 -3.233677e-04 -3.246720e-04 -3.237125e-04
          -3.204519e-04 -2.583609e-04 -2.526564e-04 -2.546509e-04 -2.599049e-04 -2.676943e-04
          -2.810509e-04 -2.898109e-04 -2.857281e-04 -2.886911e-04 -2.886813e-04 -2.775791e-04
          -2.697906e-04 -2.947912e-04 -3.043477e-04 -2.213675e-04 -1.873659e-04 -1.932417e-04
          -2.034068e-04 -2.115874e-04 -2.147918e-04 -2.127706e-04 -2.090722e-04 -2.038813e-04
          2.738109e-04 3.240969e-04 3.465459e-04 3.188331e-04 2.835525e-04 2.152323e-04
          1.200504e-04 -1.421725e-04 -1.357678e-04 -1.149985e-04 -8.556509e-05 -1.253994e-04
          -3.106247e-04 -4.001020e-04 -4.674894e-04 -5.193191e-04 -3.266259e-04 -2.362418e-04
          -2.348169e-04 -2.278629e-04 -3.047797e-04 -4.160946e-04 -4.651759e-04 -4.717698e-04
          -4.676833e-04 -3.471246e-04 -3.004919e-04 -2.854050e-04 -2.646275e-04 -2.561610e-04
          -4.013627e-04 -5.165623e-04 -5.284374e-04 -5.163599e-04 -4.769612e-04 -4.199853e-04
          -3.815480e-04 -3.223715e-04 -2.727235e-04 -4.184449e-04 -5.213746e-05 2.170751e-06
          -4.438412e-05 -3.994623e-05 -3.987650e-05 -5.800863e-05 -7.814839e-05 -1.563912e-04
          2.456257e-04 -3.035644e-05 -1.226148e-04 1.275147e-05 1.352867e-04 3.087902e-04
          -8.821934e-05 -1.233777e-05 -5.412524e-05 3.187237e-05 -8.026427e-05 -7.762957e-05
          -2.850190e-04 -5.441533e-04 -2.128313e-04 1.900426e-04 -3.798679e-04 -4.078786e-04
          -3.730831e-04 -4.101490e-04 -2.301166e-04 -5.440543e-04 -4.100713e-04 -3.811622e-04
          -3.589125e-04 -7.792517e-05 -1.763522e-04 -2.519650e-04 -3.772694e-04 -4.993223e-04
          -2.225979e-04 -1.427512e-05 3.920975e-05 -2.143375e-05 -1.631000e-04 -3.130629e-04
          -4.230429e-04 -7.838074e-04 -9.603020e-04 3.770752e-04 -3.216160e-04 -3.212306e-04
          -1.587587e-04 -2.223139e-04 -2.499772e-04 -1.746246e-04 -8.178287e-05 1.922853e-04
          -1.038470e-04 1.351856e-04 2.169340e-04 9.592476e-05 -1.876887e-05 -1.903338e-04
          1.091293e-04 1.514402e-05 8.011442e-05 4.094101e-05 1.457662e-04 1.052264e-04
          6.475377e-05 1.507597e-04 -1.530770e-04 -4.935059e-04 1.105645e-04 2.470968e-04
          2.282769e-04 2.606885e-04 6.033107e-05 1.388353e-04 -1.808707e-06 -2.784881e-05
          -3.751772e-05 -7.810644e-05 3.831173e-05 1.037821e-04 2.085376e-04 2.957676e-04
          -5.789726e-05 -3.354861e-04 -3.876050e-04 -3.337739e-04 -2.011834e-04 -5.328309e-05
          5.254211e-05 3.681574e-04 5.501417e-04 -5.022055e-04 3.184038e-04 3.787017e-04
          2.328906e-04 2.841199e-04 3.039372e-04 2.345715e-04 1.512065e-04 -1.094104e-04
          -2.098241e-04 -2.215811e-04 -2.296320e-04 -2.250171e-04 -2.158106e-04 -1.934022e-04
          -7.862870e-05 1.650945e-04 1.996369e-04 2.059379e-04 2.005227e-04 1.979168e-04
          1.701098e-04 1.430985e-04 1.446779e-04 1.481955e-04 1.581378e-04 1.973743e-04
          2.038401e-04 2.024851e-04 2.056133e-04 1.464801e-04 1.498856e-04 1.513562e-04
          1.548246e-04 2.202209e-04 2.217190e-04 2.169767e-04 2.093308e-04 1.971965e-04
          1.770367e-04 1.547839e-04 1.524352e-04 1.502967e-04 1.411250e-04 1.236422e-04
          1.112467e-04 1.068708e-04 1.149827e-04 1.914137e-04 1.574120e-04 1.708711e-04
          1.905020e-04 1.911097e-04 1.904384e-04 1.936789e-04 1.975816e-04 2.124231e-04
          -1.827961e-04 -2.283692e-04 -2.479290e-04 -2.268167e-04 -2.026484e-04 -1.587805e-04
          -9.012931e-05 1.683021e-04 1.993629e-04 2.172021e-04 1.981620e-04 1.950461e-04
          1.376703e-04 7.603235e-05 1.177330e-04 1.704039e-04 1.123688e-04 1.503710e-04
          1.613006e-04 1.555079e-04 1.800738e-04 7.933902e-05 9.879922e-05 1.037978e-04
          1.101183e-04 2.134347e-04 2.034074e-04 1.892515e-04 1.660757e-04 1.386397e-04
          1.504815e-04 1.520580e-04 1.560246e-04 1.465062e-04 1.199832e-04 8.409686e-05
          5.806690e-05 9.735431e-06 -3.068254e-06 2.395577e-04 1.234581e-04 1.387323e-04
          1.785990e-04 1.714727e-04 1.673351e-04 1.799300e-04 1.951032e-04 2.431203e-04
          -1.452198e-04 8.893100e-06 6.038520e-05 -1.837203e-05 -9.157600e-05 -1.980121e-04
          3.704023e-05 5.909001e-05 1.118538e-04 8.514489e-05 1.519737e-04 1.224543e-04
          7.616592e-05 1.168528e-04 -8.375534e-05 -3.058722e-04 1.133981e-04 2.339989e-04
          2.252463e-04 2.460486e-04 1.072253e-04 1.105269e-04 1.654640e-05 -1.958064e-07
          -3.951800e-06 2.269685e-05 1.051172e-04 1.466307e-04 2.125249e-04 2.633501e-04
          5.262649e-06 -2.005815e-04 -2.368160e-04 -2.019494e-04 -1.169562e-04 -2.360275e-05
          4.350049e-05 2.514461e-04 3.784696e-04 -2.805711e-04 2.574030e-04 2.985916e-04
          2.067975e-04 2.402461e-04 2.527792e-04 2.081754e-04 1.542853e-04 -1.225249e-05
          -1.526828e-05 -1.259093e-04 -1.639584e-04 -1.105225e-04 -6.018313e-05 1.555995e-05
          -9.121023e-05 4.276685e-05 3.256158e-05 5.660535e-05 9.025334e-06 8.315857e-06
          -8.695280e-05 -2.014383e-04 -7.286299e-05 8.695772e-05 -9.516154e-05 -5.661742e-05
          -3.765167e-05 -5.314239e-05 2.404909e-06 -1.979680e-04 -1.484109e-04 -1.366635e-04
          -1.237483e-04 7.243633e-05 4.493288e-05 1.384084e-05 -3.880540e-05 -9.599735e-05
          -3.241190e-05 9.290832e-06 2.705032e-05 2.721743e-06 -5.502534e-05 -1.174911e-04
          -1.620468e-04 -3.006388e-04 -3.576253e-04 2.036738e-04 -8.144695e-05 -9.067322e-05
          -2.521949e-05 -5.068389e-05 -6.199181e-05 -3.146003e-05 5.962594e-06 1.215099e-04
          -1.986105e-05 1.286010e-04 1.808499e-04 1.046982e-04 3.029586e-05 -8.387757e-05
          6.863734e-05 -3.130261e-05 4.251906e-06 -2.037061e-05 4.492901e-05 9.904756e-06
          -7.145415e-05 -5.389911e-05 -2.441123e-04 -4.481706e-04 -2.561825e-05 1.067923e-04
          9.949601e-05 1.191551e-04 -2.728299e-05 -6.320568e-05 -1.588580e-04 -1.753375e-04
          -1.769736e-04 -1.117587e-04 -2.500250e-05 1.577727e-05 7.902792e-05 1.254596e-04
          -1.444098e-04 -3.588341e-04 -3.933734e-04 -3.597998e-04 -2.742461e-04 -1.743308e-04
          -1.026967e-04 9.356052e-05 2.171560e-04 -3.991791e-04 1.632579e-04 2.025401e-04
          1.048815e-04 1.341488e-04 1.450088e-04 1.012333e-04 4.880731e-05 -1.160136e-04
          -2.169739e-05 -8.130416e-05 -1.014195e-04 -7.255582e-05 -4.525965e-05 -3.611161e-06
          -6.192987e-05 9.586655e-06 -2.368578e-06 2.782488e-06 -2.439174e-05 -2.277859e-05
          -6.316196e-05 -1.184111e-04 -4.760762e-05 4.009339e-05 -4.902405e-05 -1.927468e-05
          -8.252052e-06 -1.703878e-05 8.321096e-06 -1.149764e-04 -8.843190e-05 -8.200287e-05
          -7.418579e-05 4.894604e-05 3.690538e-05 2.018606e-05 -8.571425e-06 -4.083998e-05
          -1.625311e-05 -1.900960e-06 7.226104e-06 -6.064342e-06 -3.746051e-05 -7.080643e-05
          -9.389257e-05 -1.681688e-04 -1.971827e-04 1.067756e-04 -6.060967e-05 -7.667181e-05
          -4.376417e-05 -5.800292e-05 -6.403297e-05 -4.738565e-05 -2.688909e-05 3.876809e-05
          1.315595e-05 7.999739e-05 1.057370e-04 7.255051e-05 3.957684e-05 -1.162235e-05
          1.690036e-05 -1.073698e-04 -1.256590e-04 -1.639923e-04 -1.396836e-04 -1.432961e-04
          -1.107975e-04 -5.914309e-05 -1.338687e-04 -2.180164e-04 -3.177923e-05 2.152758e-05
          1.685051e-05 2.439165e-05 -4.552586e-05 -5.851842e-05 -9.754660e-05 -1.045758e-04
          -1.053534e-04 -7.753786e-05 -3.765192e-05 -1.873522e-05 1.011350e-05 3.218001e-05
          -8.736581e-05 -1.806171e-04 -1.948110e-04 -1.805829e-04 -1.432309e-04 -9.647238e-05
          -6.063767e-05 2.453068e-05 7.492950e-05 -2.208417e-04 -3.593188e-05 -6.194004e-05
          -1.157864e-04 -1.045129e-04 -9.908323e-05 -1.176062e-04 -1.397944e-04 -2.024595e-04
          1.485831e-04 2.072087e-04 2.329548e-04 2.042927e-04 1.722049e-04 1.163098e-04
          5.147618e-05 -2.149885e-04 -2.586390e-04 -2.990632e-04 -2.783108e-04 -2.815036e-04
          -2.521479e-04 -2.042104e-04 -2.617450e-04 -3.239659e-04 -1.603310e-04 -1.168538e-04
          -1.221138e-04 -1.161017e-04 -1.845215e-04 -2.052935e-04 -2.408500e-04 -2.472262e-04
          -2.474212e-04 -2.151286e-04 -1.772583e-04 -1.596277e-04 -1.337199e-04 -1.136776e-04
          -2.215508e-04 -3.032492e-04 -3.138245e-04 -3.017013e-04 -2.662135e-04 -2.159110e-04
          -1.773513e-04 -1.088866e-04 -6.971691e-05 -3.280263e-04 -1.558734e-04 -1.935138e-04
          -2.520846e-04 -2.453056e-04 -2.412902e-04 -2.576625e-04 -2.770833e-04 -3.325973e-04
          2.540175e-05 -1.401840e-05 -2.579921e-05 -4.435230e-06 1.594423e-05 4.665587e-05
          -3.301784e-05 -8.414852e-05 -1.278729e-04 -1.487804e-04 -1.713010e-04 -1.496703e-04
          -5.817377e-05 -1.865167e-05 4.282996e-05 1.047231e-04 -1.161108e-05 -5.301795e-05
          -5.252110e-05 -5.904224e-05 -2.409850e-05 -1.125910e-05 1.828359e-05 2.299350e-05
          2.344723e-05 4.532729e-06 -1.770925e-05 -2.796201e-05 -4.443289e-05 -5.563335e-05
          1.801368e-05 7.828578e-05 8.878836e-05 7.900293e-05 5.503900e-05 3.010547e-05
          1.457813e-05 -4.064760e-05 -7.877675e-05 6.660027e-05 -1.521399e-04 -2.065733e-04
          -1.904528e-04 -2.000933e-04 -2.024448e-04 -1.895250e-04 -1.742369e-04 -1.187075e-04
          -1.938965e-04 -1.912405e-04 -1.936044e-04 -1.922952e-04 -1.843185e-04 -1.614254e-04
          -5.934750e-05 7.388292e-05 6.708912e-05 3.842566e-05 3.297013e-05 6.423504e-05
          2.439162e-04 3.567080e-04 3.617257e-04 3.439804e-04 2.696652e-04 1.911558e-04
          1.833024e-04 1.834491e-04 2.184197e-04 3.679631e-04 3.865431e-04 3.873194e-04
          3.798430e-04 2.256455e-04 2.020761e-04 2.021722e-04 2.058011e-04 2.197865e-04
          3.013102e-04 3.691611e-04 3.716618e-04 3.713224e-04 3.629869e-04 3.438961e-04
          3.324432e-04 3.382210e-04 3.219226e-04 2.266017e-04 4.967919e-05 5.617460e-06
          1.459585e-05 2.009783e-05 2.411046e-05 2.659523e-05 2.830041e-05 4.629433e-05
          -2.335393e-04 -9.705282e-05 -5.395664e-05 -1.199248e-04 -1.757669e-04 -2.484946e-04
          1.606107e-05 8.089447e-05 1.104804e-04 6.306096e-05 1.169058e-04 1.279241e-04
          3.001160e-04 4.712380e-04 3.076338e-04 9.803061e-05 3.388858e-04 3.131416e-04
          2.924327e-04 3.111083e-04 2.432049e-04 4.754336e-04 4.182899e-04 4.044354e-04
          3.895613e-04 1.703755e-04 2.056334e-04 2.424919e-04 3.056569e-04 3.723912e-04
          2.796866e-04 2.126349e-04 1.873090e-04 2.171192e-04 2.824249e-04 3.448529e-04
          3.912257e-04 5.721146e-04 6.517789e-04 -4.704246e-05 2.252608e-04 2.175891e-04
          1.466052e-04 1.813904e-04 1.968709e-04 1.608287e-04 1.158199e-04 -1.291701e-05
          -1.476968e-05 -1.384384e-04 -1.831677e-04 -1.212323e-04 -6.080322e-05 3.227256e-05
          -6.648384e-05 8.548432e-05 7.919963e-05 1.147102e-04 6.298119e-05 7.811833e-05
          6.465759e-05 -2.477460e-06 1.462051e-04 3.142069e-04 5.760614e-06 -5.797638e-05
          -4.693105e-05 -6.292033e-05 4.453690e-05 2.142886e-06 7.330337e-05 8.655764e-05
          9.172693e-05 1.147020e-04 5.356958e-05 1.911037e-05 -3.565247e-05 -8.209804e-05
          9.864628e-05 2.385248e-04 2.639833e-04 2.367224e-04 1.675894e-04 8.648559e-05
          2.729200e-05 -1.317472e-04 -2.208858e-04 3.333917e-04 -6.228686e-05 -6.730171e-05
          1.726904e-05 -7.105391e-06 -1.738634e-05 1.807262e-05 6.040854e-05 1.902933e-04
          -2.030499e-05 2.232668e-04 3.069577e-04 1.839512e-04 6.537639e-05 -1.153364e-04
          1.503886e-04 -1.631370e-05 4.847396e-05 1.887143e-05 1.279185e-04 8.354164e-05
          2.645221e-05 1.056282e-04 -2.025397e-04 -5.469021e-04 5.072806e-05 1.706289e-04
          1.493865e-04 1.829408e-04 -1.589156e-05 9.025559e-05 -5.284632e-05 -7.989994e-05
          -9.096473e-05 -1.629253e-04 -4.826247e-05 1.899208e-05 1.265022e-04 2.185700e-04
          -1.242416e-04 -3.909870e-04 -4.424815e-04 -3.873887e-04 -2.508072e-04 -9.660504e-05
          1.254380e-05 3.305805e-04 5.101725e-04 -5.654883e-04 2.964422e-04 3.699393e-04
          2.203689e-04 2.720998e-04 2.919129e-04 2.212003e-04 1.354189e-04 -1.358152e-04
          1.038432e-04 9.974166e-05 1.021211e-04 1.042638e-04 1.026271e-04 9.486715e-05
          1.751393e-06 -1.407497e-04 -1.783954e-04 -1.984357e-04 -2.036667e-04 -2.039239e-04
          -2.094070e-04 -2.142716e-04 -2.005205e-04 -1.786875e-04 -1.475244e-04 -1.106899e-04
          -1.075788e-04 -1.097035e-04 -1.317919e-04 -2.131846e-04 -2.161955e-04 -2.160118e-04
          -2.114313e-04 -1.248349e-04 -1.118835e-04 -1.119833e-04 -1.150675e-04 -1.228788e-04
          -1.634213e-04 -1.956336e-04 -1.951970e-04 -1.966701e-04 -1.958247e-04 -1.866110e-04
          -1.781454e-04 -1.874890e-04 -1.860295e-04 -1.449846e-04 -1.520725e-04 -1.855181e-04
          -1.999840e-04 -2.055527e-04 -2.071284e-04 -2.058269e-04 -2.041698e-04 -1.947589e-04
          2.306199e-05 4.227065e-05 5.327602e-05 4.533140e-05 3.654882e-05 2.235385e-05
          -3.204339e-05 -1.868655e-04 -2.502399e-04 -3.104373e-04 -3.128218e-04 -2.951344e-04
          -1.800379e-04 -9.907758e-05 -1.029456e-04 -1.128379e-04 -4.725844e-05 -2.271633e-05
          -2.458986e-05 -2.483520e-05 -5.949709e-05 -9.009792e-05 -9.674344e-05 -9.821812e-05
          -9.669105e-05 -5.589384e-05 -3.772943e-05 -3.145905e-05 -2.348112e-05 -1.849940e-05
          -6.936682e-05 -1.075780e-04 -1.105835e-04 -1.079767e-04 -9.895968e-05 -8.166336e-05
          -6.435864e-05 -4.389933e-05 -3.345800e-05 -1.369701e-04 -1.930787e-04 -2.773414e-04
          -3.109085e-04 -3.114106e-04 -3.092274e-04 -3.124303e-04 -3.165416e-04 -3.138113e-04
          -2.330879e-04 -2.269478e-04 -2.265967e-04 -2.271002e-04 -2.206304e-04 -1.987582e-04
          -9.987596e-05 2.397250e-05 -3.882830e-06 -5.863021e-05 -6.759792e-05 -3.211342e-05
          1.731154e-04 3.020145e-04 3.073700e-04 2.911878e-04 2.633449e-04 2.247733e-04
          2.198169e-04 2.189808e-04 2.323194e-04 3.179039e-04 3.324574e-04 3.332529e-04
          3.290412e-04 2.473903e-04 2.371567e-04 2.381102e-04 2.416977e-04 2.508049e-04
          2.868184e-04 3.166829e-04 3.166611e-04 3.164774e-04 3.096443e-04 2.948932e-04
          2.890048e-04 3.006594e-04 2.943374e-04 1.956477e-04 -5.661437e-06 -8.484840e-05
          -8.682708e-05 -8.262317e-05 -7.849715e-05 -7.628831e-05 -7.474714e-05 -5.001954e-05
          -3.382806e-04 -3.486338e-04 -3.561694e-04 -3.494314e-04 -3.338279e-04 -2.940893e-04
          -1.443106e-04 1.229350e-04 1.167210e-04 7.207617e-05 5.679961e-05 8.850845e-05
          2.568764e-04 3.526362e-04 3.692766e-04 3.692394e-04 3.308440e-04 3.176634e-04
          3.181603e-04 3.153692e-04 3.356719e-04 3.695844e-04 3.896048e-04 3.921810e-04