<?xml version="1.0"?>
<VTKFile type="RectilinearGrid" version="0.1" byte_order="LittleEndian">
  <RectilinearGrid WholeExtent="0 47 0 47 0 47">
    <Piece Extent="0 47 0 47 0 47">
      <PointData Scalars="concentration">
        <DataArray type="Float32" Name="concentration" NumberOfComponents="1" format="ascii">
          5.652100e-05 8.149520e-05 9.045704e-05 8.134700e-05 7.392867e-05 6.298288e-05
          5.787928e-05 -6.503156e-05 -8.825017e-05 -1.048799e-04 -9.617747e-05 -7.133070e-05
          9.541248e-05 2.157339e-04 2.011413e-04 1.619658e-04 9.072511e-05 -3.529145e-05
          -5.130942e-05 -4.759982e-05 -1.702305e-05 2.184141e-04 2.258625e-04 2.239551e-04
          2.109799e-04 -3.800291e-05 -6.219017e-05 -5.469232e-05 -3.802912e-05 -5.747279e-06
          9.580361e-05 1.864846e-04 1.897070e-04 1.943345e-04 2.023919e-04 2.085441e-04
          2.129607e-04 2.359937e-04 2.174801e-04 1.802619e-06 -5.851482e-05 -8.453165e-05
          -9.702319e-05 -8.921170e-05 -8.355263e-05 -8.872584e-05 -9.525112e-05 -1.130772e-04
          1.055179e-04 1.270979e-04 1.350339e-04 1.281731e-04 1.222472e-04 1.121380e-04
          8.393850e-05 -7.889367e-05 -1.043292e-04 -1.143387e-04 -1.057378e-04 -7.832031e-05
          1.020355e-04 2.307598e-04 2.224708e-04 1.875324e-04 7.733882e-05 -8.256871e-05
          -1.014722e-04 -9.779984e-05 -5.256368e-05 2.321317e-04 2.448299e-04 2.432973e-04
          2.277192e-04 -7.632155e-05 -1.103704e-04 -1.035528e-04 -8.697181e-05 -5.055066e-05
          8.741902e-05 2.093387e-04 2.153602e-04 2.192340e-04 2.253299e-04 2.291734e-04
          2.311481e-04 2.468183e-04 2.173921e-04 -9.729204e-07 -7.710611e-05 -9.828174e-05
          -1.074171e-04 -9.977967e-05 -9.418215e-05 -9.829327e-05 -1.036644e-04 -1.204655e-04
          9.700889e-05 3.089997e-04 3.826621e-04 2.803890e-04 1.827766e-04 3.331958e-05
          2.053056e-04 -1.111828e-04 -9.506338e-05 -1.344467e-04 -4.172271e-05 -4.190521e-05
          1.351328e-04 3.523542e-04 1.074705e-04 -1.968172e-04 1.357780e-04 4.384541e-05
          5.649684e-06 3.550759e-05 -6.571267e-05 3.432757e-04 2.487589e-04 2.264099e-04
          1.999105e-04 -2.045291e-04 -1.555424e-04 -9.603518e-05 5.722352e-06 1.184625e-04
          1.349915e-05 -5.138964e-05 -8.394424e-05 -3.737201e-05 7.417810e-05 1.966336e-04
          2.829559e-04 5.452823e-04 6.491037e-04 -4.319899e-04 1.282688e-04 1.527969e-04
          2.630529e-05 7.478565e-05 9.639219e-05 3.761986e-05 -3.409822e-05 -2.595450e-04
          1.488843e-04 -2.863453e-05 -9.038055e-05 8.822684e-07 8.746346e-05 2.154308e-04
          -1.935776e-05 4.664526e-06 -3.548494e-05 1.350098e-05 -6.024641e-05 -2.371894e-05
          4.690119e-05 1.177596e-05 2.396480e-04 4.853529e-04 -5.205271e-05 -2.452210e-04
          -2.398939e-04 -2.625638e-04 -7.580140e-05 1.719511e-05 1.319499e-04 1.514373e-04
          1.503765e-04 1.451790e-05 -9.727790e-05 -1.456836e-04 -2.195502e-04 -2.691889e-04
          8.672207e-05 3.724918e-04 4.164434e-04 3.765668e-04 2.764188e-04 1.614966e-04
          7.685374e-05 -1.631096e-04 -3.203156e-04 4.086102e-04 -2.209318e-04 -2.437359e-04
          -1.264348e-04 -1.615369e-04 -1.749826e-04 -1.233626e-04 -6.141202e-05 1.251820e-04
          2.213887e-05 1.686341e-04 2.183139e-04 1.466612e-04 7.884904e-05 -2.387718e-05
          1.269037e-04 -2.333921e-05 5.349129e-06 -1.320463e-05 5.229583e-05 4.385449e-05
          1.172618e-04 2.352216e-04 5.895523e-05 -1.539864e-04 1.056419e-04 7.436871e-05
          5.141220e-05 7.231816e-05 -6.723350e-06 2.276395e-04 1.572108e-04 1.414609e-04
          1.257006e-04 -1.017971e-04 -6.081023e-05 -2.009260e-05 4.889719e-05 1.213041e-04
          1.900264e-05 -5.245364e-05 -7.737242e-05 -4.477500e-05 3.318110e-05 1.177189e-04
          1.768317e-04 3.619990e-04 4.436997e-04 -2.773591e-04 1.509136e-04 1.851097e-04
          1.009356e-04 1.348518e-04 1.489388e-04 1.078664e-04 5.751450e-05 -1.021012e-04
          -5.337660e-05 9.579904e-05 1.458855e-04 7.212617e-05 3.405493e-06 -9.832045e-05
          8.863363e-05 6.241506e-06 4.029637e-05 1.433584e-05 7.934116e-05 6.742233e-05
          1.208074e-04 2.253096e-04 4.208014e-05 -1.749282e-04 1.326716e-04 1.465222e-04
          1.276933e-04 1.484744e-04 5.182128e-05 2.195916e-04 1.431908e-04 1.271110e-04
          1.149110e-04 -3.842981e-05 1.470865e-05 5.575397e-05 1.240303e-04 1.900719e-04
          4.152382e-05 -7.003981e-05 -9.849706e-05 -6.524855e-05 1.415192e-05 9.994514e-05
          1.609229e-04 3.540897e-04 4.495821e-04 -2.591432e-04 1.851952e-04 2.146313e-04
          1.281195e-04 1.621830e-04 1.761447e-04 1.342145e-04 8.291657e-05 -7.633112e-05
          -4.768575e-06 -2.331416e-04 -3.135252e-04 -1.984207e-04 -8.664947e-05 8.456021e-05
          -1.342057e-04 7.703447e-05 3.643794e-05 7.942612e-05 -2.014013e-05 1.693033e-05
          4.455380e-05 -4.624386e-05 2.370142e-04 5.540064e-04 -1.437530e-05 -1.333623e-04
          -1.136755e-04 -1.443353e-04 4.908377e-05 -3.401456e-05 9.993088e-05 1.248747e-04
          1.344939e-04 1.833713e-04 7.232359e-05 8.976661e-06 -9.162151e-05 -1.771843e-04
          1.540969e-04 4.114031e-04 4.593969e-04 4.082561e-04 2.799459e-04 1.325587e-04
          2.680261e-05 -2.695771e-04 -4.373927e-04 5.736080e-04 -2.087237e-04 -2.538484e-04
          -1.065191e-04 -1.533728e-04 -1.719239e-04 -1.058998e-04 -2.630905e-05 2.225367e-04
          -6.288635e-05 2.524213e-04 3.609178e-04 2.056893e-04 5.968782e-05 -1.579552e-04
          1.881042e-04 -7.868375e-05 -3.600810e-05 -1.104684e-04 2.353697e-05 6.201406e-06
          1.644553e-04 4.148314e-04 3.659546e-05 -4.142621e-04 2.332055e-04 2.571384e-04
          2.162900e-04 2.592025e-04 5.040784e-05 4.053814e-04 2.459726e-04 2.123832e-04
          1.866176e-04 -1.369659e-04 -2.327775e-05 6.401459e-05 2.085458e-04 3.493916e-04
          3.594158e-05 -1.974749e-04 -2.563510e-04 -1.866514e-04 -1.877030e-05 1.661137e-04
          2.991597e-04 7.038005e-04 9.010081e-04 -6.092223e-04 2.883307e-04 3.182427e-04
          1.260742e-04 1.959695e-04 2.259258e-04 1.376459e-04 3.027386e-05 -2.990184e-04
          5.551720e-05 1.863510e-05 5.670919e-06 2.703408e-05 4.857041e-05 8.168791e-05
          2.069636e-05 -2.933422e-05 -5.521438e-05 -5.382099e-05 -7.080099e-05 -4.295646e-05
          9.039660e-05 1.599672e-04 2.181699e-04 2.652886e-04 6.284926e-05 -7.170047e-05
          -7.998762e-05 -8.442062e-05 -9.954800e-06 1.642369e-04 2.034918e-04 2.080931e-04
          1.997467e-04 5.115282e-06 -4.308373e-05 -5.282953e-05 -6.431864e-05 -5.908080e-05
          1.088503e-04 2.490410e-04 2.638093e-04 2.548910e-04 2.296783e-04 1.981232e-04
          1.751133e-04 1.193962e-04 6.196820e-05 1.409575e-04 -9.340778e-05 -1.197527e-04
          -9.224013e-05 -9.740506e-05 -9.776785e-05 -8.552439e-05 -7.113448e-05 -2.533513e-05
          1.038648e-04 1.276048e-04 1.358122e-04 1.271963e-04 1.190725e-04 1.054290e-04
          8.709677e-05 -5.483806e-05 -6.836981e-05 -6.965646e-05 -5.834116e-05 -3.866444e-05
          9.871373e-05 2.010473e-04 1.854943e-04 1.468839e-04 6.037357e-05 -7.896654e-05
          -9.599976e-05 -9.167869e-05 -5.432864e-05 2.001782e-04 2.075185e-04 2.054807e-04
          1.914376e-04 -8.056787e-05 -1.089399e-04 -1.016460e-04 -8.488113e-05 -5.091410e-05
          6.540078e-05 1.686277e-04 1.729134e-04 1.776001e-04 1.862545e-04 1.930147e-04
          1.964738e-04 2.164467e-04 1.944409e-04 -1.407937e-05 -4.265795e-05 -4.746243e-05
          -5.646469e-05 -4.837643e-05 -4.350281e-05 -4.873670e-05 -5.560041e-05 -7.942464e-05
          1.741713e-04 2.066839e-04 2.179361e-04 2.049081e-04 1.910307e-04 1.658718e-04
          1.324468e-04 -6.002405e-05 -6.435921e-05 -5.086210e-05 -3.225979e-05 -1.891394e-05
          9.113154e-05 1.820729e-04 1.542249e-04 1.030082e-04 1.779558e-05 -1.385256e-04
          -1.583218e-04 -1.520050e-04 -1.135894e-04 1.765513e-04 1.786131e-04 1.754020e-04
          1.591536e-04 -1.524526e-04 -1.821257e-04 -1.721295e-04 -1.505369e-04 -1.096875e-04
          1.523292e-05 1.272017e-04 1.311204e-04 1.380506e-04 1.530843e-04 1.675148e-04
          1.748846e-04 2.034811e-04 1.827262e-04 -6.730935e-05 -3.007365e-05 -1.104665e-05
          -2.337509e-05 -1.315864e-05 -8.027724e-06 -1.629647e-05 -2.696418e-05 -6.846071e-05
          2.327139e-04 2.374772e-04 2.392127e-04 2.397100e-04 2.373804e-04 2.271321e-04
          1.451392e-04 -5.454335e-05 -5.628337e-05 -2.345192e-05 -1.398214e-05 -3.970769e-06
          6.553569e-05 1.188452e-04 1.227389e-04 1.113105e-04 -4.114517e-05 -2.103420e-04
          -2.275162e-04 -2.243940e-04 -1.633322e-04 1.107994e-04 1.258870e-04 1.254530e-04
          1.105808e-04 -1.911020e-04 -2.334715e-04 -2.309749e-04 -2.216483e-04 -1.914167e-04
          -2.831144e-05 1.135308e-04 1.234602e-04 1.244909e-04 1.261055e-04 1.263102e-04
          1.222594e-04 1.133358e-04 7.270784e-05 -4.204716e-05 -5.091557e-05 -1.689207e-05
          -1.084042e-05 -6.762474e-06 -4.638280e-06 -5.649923e-06 -7.513756e-06 -2.647100e-05
          2.713482e-04 2.647676e-04 2.630764e-04 2.690822e-04 2.710616e-04 2.655037e-04
          1.530407e-04 -6.745203e-05 -7.170815e-05 -3.232589e-05 -2.679486e-05 -1.841118e-05
          3.306511e-05 7.027332e-05 8.801734e-05 9.451642e-05 -8.263849e-05 -2.546006e-04
          -2.705334e-04 -2.688499e-04 -2.005736e-04 6.105631e-05 8.093187e-05 8.165189e-05
          6.764686e-05 -2.237263e-04 -2.700975e-04 -2.705727e-04 -2.663899e-04 -2.408665e-04
          -6.546358e-05 8.610418e-05 9.855618e-05 9.710388e-05 9.363761e-05 8.932423e-05
          8.165505e-05 5.676354e-05 8.100393e-06 -4.938363e-05 -7.499055e-05 -3.721274e-05
          -2.528187e-05 -2.424195e-05 -2.335736e-05 -2.150897e-05 -1.975095e-05 -2.935645e-05
          2.239886e-04 2.868559e-04 3.096290e-04 2.804821e-04 2.492125e-04 1.944559e-04
          1.650957e-04 -8.737957e-05 -8.325199e-05 -6.742755e-05 -3.383813e-05 -3.482297e-05
          1.777811e-05 8.733408e-05 1.917297e-05 -7.015861e-05 -5.441053e-05 -1.691796e-04
          -1.891134e-04 -1.786635e-04 -1.773751e-04 7.699544e-05 5.514951e-05 4.839980e-05
          3.327247e-05 -2.360980e-04 -2.432188e-04 -2.246209e-04 -1.907758e-04 -1.427445e-04
          -8.890571e-05 -3.365594e-05 -3.720639e-05 -2.325345e-05 1.162886e-05 5.131580e-05
          7.629070e-05 1.437574e-04 1.513347e-04 -2.067451e-04 -1.145049e-05 2.664607e-05
          -8.000819e-06 6.889431e-06 1.357786e-05 -4.430980e-06 -2.646737e-05 -1.067520e-04
          1.661612e-04 1.060233e-04 8.666544e-05 1.182740e-04 1.458523e-04 1.823067e-04
          4.297639e-05 -6.205416e-05 -8.701181e-05 -6.446515e-05 -8.776489e-05 -7.433716e-05
          -4.173630e-05 -4.548351e-05 3.688265e-05 1.243088e-04 -9.158652e-05 -1.938986e-04
          -1.959550e-04 -2.032760e-04 -1.297085e-04 -4.658651e-05 -5.189077e-06 1.483564e-06
          -1.696316e-06 -1.060215e-04 -1.516813e-04 -1.673947e-04 -1.909106e-04 -2.014396e-04
          -4.725947e-05 8.000805e-05 9.795716e-05 8.428193e-05 5.167652e-05 1.663315e-05
          -1.005839e-05 -9.757323e-05 -1.620267e-04 6.796532e-05 -1.394003e-04 -1.438300e-04
          -1.069194e-04 -1.197327e-04 -1.240827e-04 -1.069119e-04 -8.596678e-05 -2.685091e-05
          8.926976e-05 1.978096e-04 2.368622e-04 1.837884e-04 1.312743e-04 4.859308e-05
          1.085961e-04 -9.051982e-05 -8.633760e-05 -1.064785e-04 -5.873514e-05 -6.605215e-05
          -1.708350e-05 6.795654e-05 -5.823422e-05 -2.083009e-04 -4.734204e-06 -1.842847e-05
          -3.489065e-05 -1.990522e-05 -8.748006e-05 6.164564e-05 7.073040e-06 -4.471243e-06
          -1.487104e-05 -1.578275e-04 -1.224039e-04 -9.169277e-05 -4.101162e-05 1.133898e-05
          -7.807769e-05 -1.408552e-04 -1.589547e-04 -1.350648e-04 -7.534973e-05 -6.573055e-06
          4.223196e-05 1.762202e-04 2.366338e-04 -2.899726e-04 3.664457e-05 5.079624e-05
          -1.924472e-05 3.500250e-06 1.364727e-05 -1.722547e-05 -5.435762e-05 -1.721661e-04
          1.306146e-04 7.944190e-05 6.220424e-05 8.879531e-05 1.122436e-04 1.436821e-04
          3.950359e-05 -2.246351e-05 -3.319833e-05 -6.139758e-06 -2.449508e-05 -1.628518e-05
          -6.814411e-06 -2.164209e-05 4.522693e-05 1.169842e-04 -6.666717e-05 -1.529398e-04
          -1.543658e-04 -1.602314e-04 -9.581674e-05 -2.384100e-05 1.045835e-05 1.603703e-05
          1.324029e-05 -7.732110e-05 -1.168649e-04 -1.303722e-04 -1.503884e-04 -1.595974e-04
          -2.770916e-05 8.060742e-05 9.551199e-05 8.410094e-05 5.653190e-05 2.578730e-05
          1.774855e-06 -7.164097e-05 -1.251593e-04 7.490003e-05 -8.379295e-05 -7.484996e-05
          -4.021551e-05 -5.041092e-05 -5.434551e-05 -3.992329e-05 -2.250041e-05 2.460313e-05
          1.258066e-04 8.146343e-05 6.497065e-05 8.824770e-05 1.090573e-04 1.371480e-04
          6.067648e-05 2.555584e-05 3.283583e-05 7.379290e-05 6.123928e-05 6.653489e-05
          6.576493e-05 4.816258e-05 1.029558e-04 1.592600e-04 -3.251380e-05 -1.398634e-04
          -1.439389e-04 -1.479228e-04 -7.583695e-05 4.339561e-05 7.585657e-05 8.051305e-05
          7.503483e-05 -6.649741e-05 -1.109574e-04 -1.227533e-04 -1.387099e-04 -1.415183e-04
          7.889260e-06 1.309658e-04 1.453697e-04 1.358205e-04 1.114870e-04 8.172644e-05
          5.699099e-05 -7.457179e-06 -6.023567e-05 9.999634e-05 -2.200821e-05 1.032789e-05
          4.783012e-05 4.098486e-05 3.763111e-05 5.008617e-05 6.457867e-05 9.885441e-05
          7.417466e-05 3.371823e-04 4.266522e-04 2.965734e-04 1.713906e-04 -2.037740e-05
          2.394624e-04 -2.944849e-05 3.653648e-05 1.849089e-05 1.392805e-04 1.085978e-04
          1.512545e-04 3.068001e-04 -1.663284e-05 -3.963314e-04 1.122206e-04 9.997012e-05
          6.326115e-05 1.011737e-04 -5.746911e-05 2.884970e-04 1.524164e-04 1.237795e-04
          9.939708e-05 -2.305410e-04 -1.450479e-04 -7.189822e-05 5.012098e-05 1.728165e-04
          -5.499235e-05 -2.209230e-04 -2.680676e-04 -2.090481e-04 -6.535195e-05 9.263676e-05
          2.023260e-04 5.360401e-04 6.944339e-04 -5.569336e-04 2.978572e-04 3.857942e-04
          2.339114e-04 2.934437e-04 3.170227e-04 2.419290e-04 1.501843e-04 -1.456026e-04
          1.537923e-04 2.824482e-05 -1.675371e-05 4.724407e-05 1.068243e-04 1.930263e-04
          2.836100e-05 5.231498e-05 4.928310e-05 1.129733e-04 6.657757e-05 8.135854e-05
          6.976291e-05 7.429407e-06 1.616123e-04 3.310201e-04 -6.401019e-05 -2.149956e-04
          -2.121456e-04 -2.267277e-04 -8.537961e-05 4.972512e-06 8.375811e-05 9.713977e-05
          9.499424e-05 -3.110793e-05 -1.152868e-04 -1.495227e-04 -2.011614e-04 -2.341356e-04
          3.422250e-05 2.499145e-04 2.815878e-04 2.540185e-04 1.850725e-04 1.045286e-04
          4.269552e-05 -1.279312e-04 -2.405854e-04 2.839583e-04 -9.267995e-05 -6.566900e-05
          2.472075e-05 1.133331e-06 -9.232321e-06 2.636497e-05 6.870671e-05 1.875278e-04
          1.855207e-04 1.716719e-04 1.660444e-04 1.744012e-04 1.797892e-04 1.823652e-04
          1.122722e-04 1.952709e-06 1.514852e-05 5.956709e-05 6.225850e-05 6.302486e-05
          6.249934e-05 6.113415e-05 7.957552e-05 9.330351e-05 -5.320687e-05 -1.767146e-04
          -1.865689e-04 -1.858706e-04 -1.276791e-04 5.235727e-05 6.975511e-05 7.098343e-05
          6.154052e-05 -1.420131e-04 -1.798668e-04 -1.829860e-04 -1.841746e-04 -1.702104e-04
          -3.348442e-05 8.256237e-05 9.274967e-05 9.013552e-05 8.319073e-05 7.348788e-05
          6.211411e-05 3.388038e-05 -4.779525e-06 5.671884e-06 -6.233000e-06 4.238238e-05
          6.177134e-05 6.164653e-05 6.084079e-05 6.442902e-05 6.799759e-05 6.497314e-05
          2.118474e-04 2.678527e-04 2.870340e-04 2.605837e-04 2.318609e-04 1.815005e-04
          1.661123e-04 -3.552029e-05 -1.344128e-05 1.857960e-05 5.193393e-05 4.368540e-05
          4.865387e-05 8.460232e-05 1.842947e-05 -6.451545e-05 -5.422516e-05 -1.592886e-04
          -1.769962e-04 -1.667894e-04 -1.615257e-04 7.176400e-05 5.048998e-05 4.411015e-05
          3.024854e-05 -2.187919e-04 -2.271262e-04 -2.107512e-04 -1.804382e-04 -1.372981e-04
          -8.448744e-05 -3.199252e-05 -3.521310e-05 -2.224793e-05 9.785829e-06 4.496822e-05
          6.560086e-05 1.261659e-04 1.339041e-04 -1.760693e-04 4.186412e-05 1.033637e-04
          7.767935e-05 9.202856e-05 9.714555e-05 8.067746e-05 5.998859e-05 -1.929850e-05
          2.794747e-04 9.287702e-06 -8.416482e-05 5.234954e-05 1.787178e-04 3.616117e-04
          -1.364602e-05 2.430012e-05 -1.472815e-05 8.311825e-05 -2.439319e-05 6.331310e-06
          -2.973690e-05 -1.739111e-04 1.617013e-04 5.405666e-04 -2.055193e-04 -4.250825e-04
          -4.094607e-04 -4.434711e-04 -1.877917e-04 -1.729654e-04 -1.385167e-05 1.507367e-05
          2.008366e-05 -5.341705e-05 -2.034049e-04 -2.771392e-04 -3.926804e-04 -4.804990e-04
          -1.359786e-05 3.573504e-04 4.202533e-04 3.604761e-04 2.139884e-04 4.929479e-05
          -7.356545e-05 -4.364896e-04 -6.561285e-04 5.245988e-04 -2.960731e-04 -2.899883e-04
          -1.134012e-04 -1.690578e-04 -1.924332e-04 -1.159196e-04 -2.390913e-05 2.459263e-04
          1.753497e-04 4.185457e-04 5.032159e-04 3.835009e-04 2.659466e-04 8.188573e-05
          2.612590e-04 -1.009293e-04 -5.552790e-05 -7.146665e-05 4.083863e-05 1.420198e-05
          6.524354e-05 2.186662e-04 -7.472155e-05 -4.200767e-04 2.678010e-05 -1.090263e-05
          -4.781940e-05 -1.276726e-05 -1.541402e-04 1.997953e-04 7.593082e-05 4.942195e-05
          2.497346e-05 -3.187995e-04 -2.445187e-04 -1.763001e-04 -6.228674e-05 5.594176e-05
          -1.321400e-04 -2.645718e-04 -3.056058e-04 -2.511240e-04 -1.169699e-04 3.367692e-05
          1.380105e-04 4.411032e-04 5.785729e-04 -5.917832e-04 1.994064e-04 2.767671e-04
          1.313208e-04 1.852059e-04 2.068431e-04 1.373205e-04 5.248866e-05 -2.230384e-04
          1.398709e-04 1.278807e-04 1.241044e-04 1.314319e-04 1.365299e-04 1.401196e-04
          7.387811e-05 -3.213871e-05 -3.582141e-05 -1.388466e-05 -1.475356e-05 -9.056494e-06
          1.827225e-05 3.389690e-05 5.357353e-05 6.889361e-05 -4.345599e-05 -1.363336e-04
          -1.437402e-04 -1.440865e-04 -1.018225e-04 2.960685e-05 4.490582e-05 4.618785e-05
          3.932685e-05 -1.085892e-04 -1.366619e-04 -1.393320e-04 -1.408874e-04 -1.308943e-04
          -2.832757e-05 5.914497e-05 6.736140e-05 6.478938e-05 5.818348e-05 5.045361e-05
          4.253617e-05 1.872266e-05 -1.262373e-05 -4.329258e-06 -4.654853e-05 -2.874912e-05
          -1.720654e-05 -1.828680e-05 -1.876807e-05 -1.523665e-05 -1.139006e-05 -7.035564e-06
          1.040946e-04 5.304200e-05 3.509945e-05 6.206361e-05 8.738067e-05 1.235313e-04
          3.934770e-05 7.990409e-07 -7.583516e-06 1.942640e-05 9.464530e-07 1.543382e-05
          6.138349e-05 6.975501e-05 1.374765e-04 2.046165e-04 -8.596095e-06 -1.250471e-04
          -1.291694e-04 -1.349080e-04 -5.693007e-05 6.884348e-05 1.084042e-04 1.141322e-04
          1.084768e-04 -3.920904e-05 -8.787186e-05 -1.015516e-04 -1.201890e-04 -1.244355e-04
          3.913863e-05 1.737999e-04 1.900822e-04 1.787337e-04 1.491021e-04 1.135356e-04
          8.586708e-05 1.264287e-05 -4.760247e-05 1.278511e-04 -6.430212e-05 -5.712326e-05
          -1.852384e-05 -2.696084e-05 -3.014741e-05 -1.509723e-05 2.617543e-06 5.149633e-05
          1.078708e-04 2.560927e-04 3.068908e-04 2.347296e-04 1.652643e-04 5.744110e-05
          1.781435e-04 -4.089818e-05 -1.039434e-05 -1.520766e-05 5.414320e-05 4.606200e-05
          1.258532e-04 2.512099e-04 7.467829e-05 -1.416452e-04 7.568426e-05 -3.658540e-06
          -3.127889e-05 -9.481455e-06 -7.167702e-05 2.400160e-04 1.725218e-04 1.566854e-04
          1.366533e-04 -1.762951e-04 -1.471173e-04 -1.055470e-04 -3.370073e-05 4.749290e-05
          -9.132496e-06 -4.072447e-05 -6.280853e-05 -2.966448e-05 4.966313e-05 1.356338e-04
          1.942485e-04 3.769800e-04 4.474026e-04 -3.046903e-04 1.376424e-04 1.879382e-04
          1.052961e-04 1.403140e-04 1.548435e-04 1.130773e-04 6.181333e-05 -1.060909e-04
          1.723731e-04 5.633590e-05 1.554030e-05 7.560400e-05 1.320065e-04 2.132937e-04
          4.266235e-05 1.493795e-05 -1.072815e-06 5.188664e-05 7.972953e-06 3.186353e-05
          8.127453e-05 6.296514e-05 2.118293e-04 3.682067e-04 -4.095276e-05 -2.269994e-04
          -2.289027e-04 -2.426242e-04 -9.579927e-05 6.217950e-05 1.422784e-04 1.550267e-04
          1.490446e-04 -4.735592e-05 -1.369272e-04 -1.683416e-04 -2.141031e-04 -2.367809e-04
          5.651814e-05 2.951442e-04 3.274144e-04 3.016464e-04 2.361116e-04 1.592163e-04
          1.004391e-04 -6.070884e-05 -1.776796e-04 2.709474e-04 -1.281280e-04 -1.170957e-04
          -3.394750e-05 -5.512808e-05 -6.348822e-05 -2.990813e-05 1.002797e-05 1.234089e-04
          7.048406e-05 2.154410e-04 2.650371e-04 1.944211e-04 1.270281e-04 2.367083e-05
          1.537935e-04 -3.670295e-05 -9.437096e-06 -2.140542e-05 4.484552e-05 3.822536e-05
          1.225055e-04 2.481101e-04 7.560833e-05 -1.355424e-04 9.122417e-05 2.862565e-05
          3.004694e-06 2.397811e-05 -4.258866e-05 2.389653e-04 1.723120e-04 1.568654e-04
          1.385823e-04 -1.412019e-04 -1.087788e-04 -6.827671e-05 1.300349e-06 7.817285e-05
          8.011805e-06 -3.576994e-05 -5.834197e-05 -2.603818e-05 5.104524e-05 1.344930e-04
          1.921143e-04 3.723459e-04 4.449396e-04 -2.853422e-04 1.354976e-04 1.755011e-04
          9.351271e-05 1.274919e-04 1.417900e-04 1.011228e-04 5.124331e-05 -1.094115e-04
          1.126214e-04 4.914475e-05 2.673654e-05 6.026316e-05 9.188575e-05 1.374163e-04
          3.740849e-05 8.603275e-07 -1.102237e-05 1.868798e-05 -5.144195e-06 1.271134e-05
          6.818746e-05 7.696798e-05 1.610795e-04 2.452954e-04 -8.000732e-06 -1.404029e-04
          -1.444554e-04 -1.517268e-04 -5.965530e-05 7.665293e-05 1.248319e-04 1.319106e-04
          1.259974e-04 -3.555735e-05 -9.269778e-05 -1.097682e-04 -1.335339e-04 -1.408861e-04
          5.012455e-05 2.069387e-04 2.264391e-04 2.122348e-04 1.753732e-04 1.313920e-04
          9.758025e-05 7.331441e-06 -6.454980e-05 1.599468e-04 -8.091243e-05 -7.657204e-05
          -2.961449e-05 -4.049087e-05 -4.446986e-05 -2.575465e-05 -3.633940e-06 5.885886e-05
          1.462934e-04 2.108040e-04 2.328278e-04 2.026096e-04 1.723586e-04 1.223404e-04
          1.387993e-04 -3.745071e-05 -2.398647e-05 -1.052503e-05 2.300412e-05 2.334353e-05
          8.363120e-05 1.573541e-04 8.419366e-05 -1.211199e-05 1.375215e-05 -9.247445e-05
          -1.115019e-04 -1.009164e-04 -1.005769e-04 1.489194e-04 1.268208e-04 1.199167e-04
          1.050506e-04 -1.570078e-04 -1.630355e-04 -1.444622e-04 -1.101772e-04 -6.296956e-05
          -1.644658e-05 3.137896e-05 2.632281e-05 4.076196e-05 7.495021e-05 1.112751e-04
          1.341001e-04 2.073311e-04 2.196445e-04 -1.458639e-04 4.005937e-05 7.793496e-05
          4.609770e-05 6.266839e-05 6.969938e-05 5.162497e-05 2.914211e-05 -5.035828e-05
          1.206228e-04 1.808903e-04 2.016063e-04 1.725700e-04 1.431437e-04 9.422126e-05
          1.136672e-04 -3.031809e-05 -1.435362e-05 -2.347095e-06 2.880497e-05 2.231921e-05
          3.831916e-05 8.072264e-05 9.012196e-06 -7.860269e-05 -1.481728e-05 -7.295383e-05
          -8.678182e-05 -7.715691e-05 -9.290216e-05 7.242690e-05 4.575980e-05 3.911529e-05
          2.880997e-05 -1.428327e-04 -1.373408e-04 -1.200960e-04 -8.979288e-05 -5.245939e-05
          -5.023737e-05 -4.086304e-05 -4.799263e-05 -3.438892e-05 -8.785807e-07 3.620433e-05
          6.010218e-05 1.309261e-04 1.528429e-04 -1.597280e-04 4.697606e-05 8.502573e-05
          5.289819e-05 6.722665e-05 7.300504e-05 5.558848e-05 3.418308e-05 -4.108246e-05
          6.145617e-05 2.405669e-05 1.145155e-05 3.018689e-05 4.682481e-05 6.928501e-05
          4.483885e-06 -8.935383e-06 -1.500733e-05 5.713148e-07 -1.381125e-05 -1.249559e-05
          -3.417012e-05 -6.443988e-05 -1.843668e-05 3.584309e-05 -5.907050e-05 -8.123709e-05
          -7.839688e-05 -8.310643e-05 -5.180502e-05 -6.533038e-05 -4.536102e-05 -4.146164e-05
          -4.000817e-05 -3.409976e-05 -5.212727e-05 -6.219051e-05 -7.849269e-05 -9.192053e-05
          -3.628089e-05 7.829432e-06 1.622019e-05 7.954940e-06 -1.125956e-05 -3.166102e-05
          -4.714675e-05 -9.775763e-05 -1.264823e-04 4.509943e-05 -5.097358e-05 -4.705982e-05
          -2.416303e-05 -3.252174e-05 -3.604895e-05 -2.577485e-05 -1.324020e-05 2.218886e-05
          -2.420142e-05 -2.105499e-05 -1.921191e-05 -2.143752e-05 -2.392240e-05 -2.779152e-05
          -2.568225e-05 -1.762460e-05 -2.271472e-05 -3.320957e-05 -3.375995e-05 -3.794502e-05
          -6.111371e-05 -7.560648e-05 -8.046236e-05 -8.055365e-05 -2.700215e-05 2.140193e-05
          2.543832e-05 2.512626e-05 2.563067e-06 -7.433984e-05 -8.183344e-05 -8.224553e-05
          -7.823730e-05 6.361565e-06 2.114120e-05 2.198847e-05 2.146821e-05 1.508276e-05
          -3.751534e-05 -8.175284e-05 -8.502672e-05 -8.441849e-05 -8.141090e-05 -7.582036e-05
          -7.070004e-05 -6.408602e-05 -5.078738e-05 -3.778626e-05 -1.319223e-05 -2.380971e-05
          -3.120055e-05 -3.223900e-05 -3.265675e-05 -3.384046e-05 -3.486377e-05 -3.543100e-05
          -1.192826e-04 1.743442e-05 6.545652e-05 -4.107118e-06 -6.972635e-05 -1.663914e-04
          6.864584e-06 -3.210423e-05 -1.427586e-05 -6.374236e-05 -9.176978e-06 -3.009880e-05
          -4.313502e-05 9.955199e-06 -1.609380e-04 -3.488704e-04 5.466702e-05 1.919780e-04
          1.864378e-04 2.034653e-04 6.220079e-05 8.419316e-06 -7.664683e-05 -9.146235e-05
          -9.158511e-05 -5.093963e-06 7.866853e-05 1.161093e-04 1.735372e-04 2.138129e-04
          -5.006083e-05 -2.608096e-04 -2.938593e-04 -2.635389e-04 -1.875996e-04 -1.000401e-04
          -3.471772e-05 1.491967e-04 2.662474e-04 -3.109486e-04 1.336257e-04 1.320228e-04
          3.906424e-05 6.591544e-05 7.691508e-05 3.772653e-05 -9.170004e-06 -1.474434e-04
          -1.291031e-04 -2.477244e-04 -2.880276e-04 -2.305720e-04 -1.742926e-04 -8.562655e-05
          -1.693480e-04 3.066280e-05 8.740006e-07 -6.106318e-06 -6.384365e-05 -5.518345e-05
          -1.076068e-04 -2.018217e-04 -6.000810e-05 1.140120e-04 -4.104182e-05 4.193197e-05
          6.596786e-05 4.778146e-05 8.955259e-05 -1.902600e-04 -1.372160e-04 -1.243438e-04
          -1.066913e-04 1.784379e-04 1.603100e-04 1.268879e-04 6.858628e-05 4.183599e-07
          2.610716e-05 3.448360e-05 5.087334e-05 2.420580e-05 -3.987049e-05 -1.091627e-04
          -1.553690e-04 -2.994747e-04 -3.512409e-04 2.559968e-04 -1.158553e-04 -1.705359e-04
          -1.066792e-04 -1.351721e-04 -1.465579e-04 -1.129427e-04 -7.144486e-05 6.781870e-05
          -1.853578e-04 6.725230e-05 1.556585e-04 2.806323e-05 -9.189546e-05 -2.688791e-04
          4.313587e-05 -5.992072e-05 -2.758105e-05 -1.127212e-04 -1.069833e-05 -4.252570e-05
          -2.556790e-05 1.001322e-04 -2.122429e-04 -5.628131e-04 1.275565e-04 3.243508e-04
          3.087222e-04 3.407632e-04 1.025501e-04 9.652501e-05 -5.313815e-05 -8.034310e-05
          -8.551197e-05 -2.730061e-05 1.119497e-04 1.812272e-04 2.896003e-04 3.732914e-04
          -5.675959e-05 -3.971052e-04 -4.547685e-04 -3.987883e-04 -2.601664e-04 -1.021434e-04
          1.497781e-05 3.510467e-04 5.531619e-04 -5.489791e-04 2.423903e-04 2.437562e-04
          7.625350e-05 1.273803e-04 1.488128e-04 7.683887e-05 -9.609694e-06 -2.661375e-04
          -3.942960e-05 -3.931036e-05 -3.901188e-05 -3.928350e-05 -3.880291e-05 -3.732293e-05
          -2.741503e-05 -5.736704e-06 -1.156560e-05 -2.255676e-05 -2.481359e-05 -2.368854e-05
          -1.857239e-05 -1.651568e-05 -1.627165e-05 -1.470893e-05 1.004928e-05 3.543011e-05
          3.773696e-05 3.707586e-05 2.651726e-05 -1.408672e-05 -1.596011e-05 -1.589357e-05
          -1.372040e-05 3.170072e-05 3.873252e-05 3.863718e-05 3.758444e-05 3.347090e-05
          7.711417e-06 -1.431280e-05 -1.589640e-05 -1.606669e-05 -1.625850e-05 -1.584190e-05
          -1.447611e-05 -1.223366e-05 -6.206139e-06 3.211248e-06 -8.739345e-06 -2.301780e-05
          -2.605254e-05 -2.683857e-05 -2.664855e-05 -2.658861e-05 -2.623413e-05 -2.165106e-05
          1.019212e-04 1.154259e-04 1.194393e-04 1.138323e-04 1.077773e-04 9.523358e-05
          8.043640e-05 -2.278733e-06 7.652456e-06 2.825358e-05 3.891842e-05 4.043981e-05
          6.442958e-05 8.942494e-05 7.492124e-05 5.090463e-05 -1.157713e-06 -8.285170e-05
          -9.242842e-05 -8.917400e-05 -6.480337e-05 8.409061e-05 8.498040e-05 8.351413e-05
          7.511392e-05 -8.663441e-05 -1.040868e-04 -9.989773e-05 -9.018905e-05 -7.054381e-05
          -6.502337e-07 6.102246e-05 6.344497e-05 6.659225e-05 7.346202e-05 7.930620e-05
          8.079744e-05 9.189251e-05 8.004402e-05 -2.644721e-05 1.649554e-05 4.542372e-05
          4.446980e-05 4.954490e-05 5.167725e-05 4.783714e-05 4.280488e-05 1.886592e-05
          2.428173e-04 2.426791e-04 2.427642e-04 2.456298e-04 2.457325e-04 2.386375e-04
          1.496711e-04 -5.167289e-05 -5.297771e-05 -1.637148e-05 -8.430324e-06 2.349349e-06
          7.286362e-05 1.248423e-04 1.345793e-04 1.292935e-04 -4.267788e-05 -2.221725e-04
          -2.395347e-04 -2.370842e-04 -1.687240e-04 1.165388e-04 1.349934e-04 1.351424e-04
          1.196906e-04 -1.950554e-04 -2.419547e-04 -2.407747e-04 -2.331868e-04 -2.034596e-04
          -2.543998e-05 1.286522e-04 1.400042e-04 1.399995e-04 1.389108e-04 1.358468e-04
          1.290883e-04 1.135555e-04 6.746197e-05 -2.981022e-05 -5.336139e-05 -1.695123e-05
          -7.020843e-06 -3.664203e-06 -1.855279e-06 -1.476760e-06 -1.669693e-06 -1.668780e-05
          2.189719e-04 1.996145e-04 1.927323e-04 2.048079e-04 2.138517e-04 2.213028e-04
          1.252400e-04 -3.111410e-05 -3.148717e-05 8.637978e-06 8.099152e-06 1.845894e-05
          6.993386e-05 9.998465e-05 1.310505e-04 1.526969e-04 -4.515298e-05 -2.115765e-04
          -2.250096e-04 -2.251976e-04 -1.488616e-04 9.271836e-05 1.194622e-04 1.215577e-04
          1.089015e-04 -1.618431e-04 -2.122803e-04 -2.166187e-04 -2.184380e-04 -1.997131e-04
          -1.641155e-05 1.396124e-04 1.535474e-04 1.494039e-04 1.380459e-04 1.232969e-04
          1.083652e-04 6.983845e-05 1.588253e-05 1.935121e-05 -5.395913e-05 -1.895300e-05