<?xml version="1.0"?>
<VTKFile type="RectilinearGrid" version="0.1" byte_order="LittleEndian">
  <RectilinearGrid WholeExtent="0 47 0 47 0 47">
    <Piece Extent="0 47 0 47 0 47">
      <PointData Scalars="concentration">
        <DataArray type="Float32" Name="concentration" NumberOfComponents="1" format="ascii">
          -3.173564e-04 -2.780343e-04 -2.658068e-04 -2.907575e-04 -3.119210e-04 -3.359527e-04
          -1.571822e-04 1.285547e-04 1.689131e-04 1.409965e-04 1.527695e-04 1.163989e-04
          -7.193362e-05 -1.821879e-04 -2.548572e-04 -3.066792e-04 3.791733e-05 3.179350e-04
          3.402270e-04 3.432371e-04 2.162074e-04 -1.789982e-04 -2.334930e-04 -2.384783e-04
          -2.182360e-04 2.219241e-04 3.069860e-04 3.160825e-04 3.224616e-04 2.938854e-04
          -1.714105e-05 -2.824270e-04 -3.076216e-04 -2.979993e-04 -2.720856e-04 -2.411779e-04
          -2.152640e-04 -1.409144e-04 -4.277224e-05 -5.596436e-05 1.983031e-04 2.025681e-04
          1.711315e-04 1.758919e-04 1.754941e-04 1.621484e-04 1.471775e-04 1.113948e-04
          -3.472262e-04 -3.074993e-04 -3.025984e-04 -3.265552e-04 -3.423404e-04 -3.537503e-04
          -6.879758e-05 3.640679e-04 4.776820e-04 5.166478e-04 5.409082e-04 5.065272e-04
          3.360904e-04 2.406113e-04 1.547209e-04 7.075389e-05 2.520674e-04 3.690070e-04
          3.772201e-04 3.848679e-04 3.394118e-04 2.353099e-04 1.982037e-04 1.931767e-04
          1.977563e-04 3.197744e-04 3.538399e-04 3.618857e-04 3.744128e-04 3.726862e-04
          2.374950e-04 1.184358e-04 9.990873e-05 1.109904e-04 1.318995e-04 1.417457e-04
          1.458754e-04 2.193045e-04 2.857585e-04 1.876974e-04 4.504988e-04 5.478465e-04
          5.534767e-04 5.685290e-04 5.707735e-04 5.573038e-04 5.407410e-04 4.828823e-04
          -2.575181e-04 -2.850180e-05 3.948892e-05 -7.727907e-05 -1.817132e-04 -3.293412e-04
          1.462420e-04 3.742261e-04 5.467068e-04 5.898934e-04 7.044410e-04 6.520330e-04
          5.383595e-04 5.733056e-04 2.548044e-04 -1.094025e-04 3.717045e-04 4.122013e-04
          3.877683e-04 4.239351e-04 2.935135e-04 5.522375e-04 4.247916e-04 3.992457e-04
          3.801277e-04 1.401886e-04 2.166676e-04 2.771774e-04 3.801111e-04 4.780300e-04
          2.485310e-04 6.930158e-05 2.041318e-05 7.425522e-05 1.970354e-04 3.155097e-04
          3.929544e-04 7.033134e-04 8.681641e-04 -1.684702e-04 6.973835e-04 8.785815e-04
          7.835691e-04 8.439730e-04 8.643363e-04 7.969568e-04 7.142398e-04 4.376532e-04
          -2.202544e-05 -1.844977e-04 -2.502028e-04 -1.709412e-04 -9.222790e-05 2.940170e-05
          -9.807080e-07 3.805191e-04 4.734283e-04 6.111093e-04 5.603210e-04 5.505526e-04
          3.671240e-04 1.761669e-04 3.431280e-04 5.380420e-04 7.901109e-05 -5.368901e-05
          -4.183952e-05 -5.809027e-05 1.217888e-04 1.660860e-04 2.556482e-04 2.721687e-04
          2.730202e-04 1.879615e-04 8.705586e-05 4.014200e-05 -3.016909e-05 -8.338918e-05
          2.164295e-04 4.488601e-04 4.825354e-04 4.491875e-04 3.603775e-04 2.453763e-04
          1.534620e-04 -5.144334e-05 -1.703182e-04 5.731080e-04 2.311253e-04 3.629267e-04
          5.080990e-04 4.833688e-04 4.690174e-04 5.126179e-04 5.644743e-04 6.974992e-04
          2.959004e-05 1.898211e-04 2.409710e-04 1.577332e-04 7.633419e-05 -5.027600e-05
          1.662324e-04 1.504527e-04 2.638460e-04 3.123553e-04 3.971549e-04 3.372192e-04
          1.256010e-04 6.909412e-05 -1.558978e-04 -3.948506e-04 -8.600072e-07 8.270249e-05
          7.043514e-05 9.566491e-05 -2.541167e-05 4.511359e-05 -5.923745e-05 -7.811177e-05
          -8.588596e-05 -1.405854e-04 -6.803875e-05 -2.476734e-05 4.568142e-05 1.053247e-04
          -1.173483e-04 -2.929255e-04 -3.283758e-04 -2.901724e-04 -1.958268e-04 -9.339037e-05
          -2.671775e-05 1.854050e-04 3.112662e-04 -3.522999e-04 3.951725e-04 5.486170e-04
          4.692639e-04 5.064019e-04 5.175094e-04 4.680279e-04 4.082018e-04 1.988732e-04
          1.040074e-04 2.661163e-04 3.242053e-04 2.394212e-04 1.520791e-04 1.109170e-05
          1.221638e-04 -5.772877e-05 -4.632275e-06 -4.624605e-06 7.239633e-05 1.088402e-05
          -2.119589e-04 -2.760381e-04 -4.915175e-04 -7.070847e-04 -1.975797e-04 -4.286677e-06
          -7.681554e-06 1.444305e-05 -1.663077e-04 -2.950147e-04 -4.128443e-04 -4.319849e-04
          -4.291029e-04 -2.665519e-04 -1.574281e-04 -1.124817e-04 -4.498509e-05 -2.355229e-06
          -3.478860e-04 -6.243938e-04 -6.640870e-04 -6.265271e-04 -5.265527e-04 -4.048219e-04
          -3.196373e-04 -1.066553e-04 4.014681e-05 -5.753967e-04 1.768371e-04 2.615815e-04
          1.512597e-04 1.806115e-04 1.898733e-04 1.397783e-04 8.033533e-05 -1.165233e-04
          7.080903e-05 -1.440704e-04 -2.150641e-04 -1.112458e-04 -1.719536e-05 1.189077e-04
          -1.635609e-04 -2.476588e-05 -6.894523e-05 -3.235295e-05 -1.261541e-04 -1.314172e-04
          -3.411531e-04 -5.781740e-04 -3.232365e-04 -1.568235e-07 -3.194424e-04 -2.119782e-04
          -1.728207e-04 -2.037826e-04 -1.163224e-04 -5.723482e-04 -4.817106e-04 -4.595306e-04
          -4.305988e-04 2.087592e-05 -2.050163e-05 -7.976876e-05 -1.828141e-04 -2.993072e-04
          -2.144377e-04 -1.640046e-04 -1.299511e-04 -1.773325e-04 -2.860168e-04 -3.967788e-04
          -4.746617e-04 -7.471710e-04 -8.534250e-04 2.597980e-04 -2.666792e-04 -3.008671e-04
          -1.865190e-04 -2.397982e-04 -2.628937e-04 -2.042716e-04 -1.318144e-04 9.309146e-05
          -2.613610e-04 6.879772e-05 1.821577e-04 1.393742e-05 -1.447004e-04 -3.784538e-04
          6.619425e-05 1.344565e-05 9.208717e-05 9.457359e-06 1.481194e-04 8.950402e-05
          1.352384e-05 1.153714e-04 -3.056520e-04 -7.694191e-04 1.594686e-04 4.465786e-04
          4.296419e-04 4.727474e-04 1.560226e-04 1.049768e-04 -9.841489e-05 -1.346168e-04
          -1.391452e-04 -1.873404e-05 1.687425e-04 2.588333e-04 3.992887e-04 5.033594e-04
          -8.433215e-05 -5.528194e-04 -6.307633e-04 -5.566278e-04 -3.731491e-04 -1.659247e-04
          -1.449632e-05 4.286825e-04 7.038017e-04 -6.995109e-04 4.283770e-04 4.777238e-04
          2.670406e-04 3.351634e-04 3.616495e-04 2.662360e-04 1.514022e-04 -1.967866e-04
          -2.860979e-04 -3.081350e-04 -3.197828e-04 -3.111826e-04 -2.976599e-04 -2.668397e-04
          -1.349323e-04 1.845265e-04 2.190812e-04 2.165660e-04 2.042376e-04 1.969678e-04
          1.305958e-04 7.165672e-05 8.170388e-05 1.023571e-04 1.550955e-04 2.604937e-04
          2.745898e-04 2.710864e-04 2.554357e-04 7.781991e-05 7.910463e-05 8.141129e-05
          9.152816e-05 2.850285e-04 3.003783e-04 2.924621e-04 2.773554e-04 2.493962e-04
          1.730724e-04 1.010717e-04 9.641107e-05 9.212579e-05 7.822350e-05 5.653955e-05
          4.268324e-05 3.064959e-05 4.934357e-05 2.132229e-04 1.669177e-04 1.689974e-04
          1.911237e-04 1.881647e-04 1.857519e-04 1.916586e-04 1.988986e-04 2.287446e-04
          -2.570416e-04 -2.205449e-04 -2.139870e-04 -2.324667e-04 -2.431055e-04 -2.477823e-04
          -4.408008e-05 2.084199e-04 2.618129e-04 2.643134e-04 2.804751e-04 2.806760e-04
          3.089307e-04 3.405062e-04 2.832430e-04 2.098595e-04 2.764219e-04 2.775311e-04
          2.738788e-04 2.800062e-04 2.717991e-04 3.427863e-04 3.282637e-04 3.246481e-04
          3.202228e-04 2.546780e-04 2.605056e-04 2.687676e-04 2.847434e-04 3.008765e-04
          2.779205e-04 2.575063e-04 2.477495e-04 2.564865e-04 2.704427e-04 2.739327e-04
          2.759341e-04 3.337034e-04 3.633231e-04 1.805762e-04 2.555259e-04 2.831905e-04
          2.819102e-04 2.958767e-04 3.009000e-04 2.912483e-04 2.787804e-04 2.426318e-04
          -1.544195e-04 -1.143933e-04 -1.067022e-04 -1.241646e-04 -1.337914e-04 -1.386232e-04
          2.795958e-05 1.655301e-04 2.056401e-04 2.131425e-04 2.322470e-04 2.508530e-04
          3.923735e-04 5.011812e-04 4.512022e-04 3.683650e-04 3.164408e-04 1.868686e-04
          1.699197e-04 1.775902e-04 2.164723e-04 5.027808e-04 5.041423e-04 5.006581e-04
          4.846962e-04 1.855582e-04 1.583847e-04 1.681653e-04 1.911403e-04 2.305612e-04
          3.340265e-04 4.232471e-04 4.208919e-04 4.299534e-04 4.422377e-04 4.411416e-04
          4.384709e-04 4.909270e-04 4.886164e-04 2.026526e-04 2.033937e-04 2.276681e-04
          2.297707e-04 2.470993e-04 2.547552e-04 2.455573e-04 2.329154e-04 1.930795e-04
          -3.579771e-05 -3.272992e-05 -3.188573e-05 -3.024418e-05 -2.572591e-05 -1.497389e-05
          -6.128030e-06 -4.011993e-05 -7.012051e-05 -9.857520e-05 -1.030219e-04 -7.268554e-05
          1.048651e-04 2.193023e-04 2.311349e-04 2.229158e-04 1.345318e-04 3.692374e-05
          2.666740e-05 2.661133e-05 6.092695e-05 2.272553e-04 2.453185e-04 2.460466e-04
          2.373622e-04 6.194022e-05 3.726675e-05 3.814022e-05 4.337043e-05 6.082509e-05
          1.551333e-04 2.366048e-04 2.416566e-04 2.412511e-04 2.359659e-04 2.260336e-04
          2.208908e-04 2.197320e-04 1.951485e-04 9.263882e-05 -6.531197e-05 -1.148076e-04
          -1.153026e-04 -1.123965e-04 -1.088525e-04 -1.068601e-04 -1.052508e-04 -9.149175e-05
          1.394139e-05 -2.696784e-06 -3.028191e-06 7.563936e-06 1.690708e-05 3.055281e-05
          -6.878092e-05 -2.124861e-04 -2.981646e-04 -3.669900e-04 -3.879399e-04 -3.581533e-04
          -2.035219e-04 -1.147844e-04 -6.953799e-05 -2.667765e-05 -4.677454e-05 -3.853779e-05
          -3.712141e-05 -4.298742e-05 -5.103699e-05 -1.010380e-04 -8.498345e-05 -8.216746e-05
          -7.884627e-05 -2.238930e-05 -1.975878e-05 -2.337937e-05 -3.102332e-05 -3.987657e-05
          -4.317466e-05 -4.412868e-05 -3.948453e-05 -4.523543e-05 -5.696906e-05 -6.258851e-05
          -6.022246e-05 -8.683659e-05 -1.034544e-04 -5.618332e-05 -2.716580e-04 -3.864374e-04
          -4.016106e-04 -4.103362e-04 -4.106083e-04 -4.031207e-04 -3.938356e-04 -3.455407e-04
          -1.651860e-05 3.403399e-05 5.725594e-05 3.473454e-05 1.320296e-05 -1.858101e-05
          -4.292874e-05 -2.403453e-04 -3.228484e-04 -4.153817e-04 -4.093120e-04 -3.813547e-04
          -1.829479e-04 -3.502789e-05 -6.908497e-05 -1.208846e-04 7.270365e-06 3.096658e-05
          2.458624e-05 2.745013e-05 -3.004468e-05 -2.165572e-05 -3.987642e-05 -4.408941e-05
          -4.530837e-05 -3.823859e-05 -8.344316e-06 6.715579e-06 2.941709e-05 4.890561e-05
          -3.217547e-05 -9.213382e-05 -1.005633e-04 -9.165079e-05 -6.787318e-05 -3.392002e-05
          -2.322610e-06 5.797631e-05 8.547045e-05 -1.868811e-04 -2.244276e-04 -3.437283e-04
          -4.021072e-04 -3.963859e-04 -3.902884e-04 -4.013873e-04 -4.146879e-04 -4.331184e-04
          -2.945497e-05 -1.010611e-04 -1.221435e-04 -8.209830e-05 -4.125229e-05 2.435990e-05
          -9.688107e-05 -1.657198e-04 -2.641005e-04 -3.276381e-04 -3.737787e-04 -3.171506e-04
          -5.143823e-05 8.222526e-05 2.015271e-04 3.120049e-04 7.565422e-05 -2.570031e-05
          -2.724674e-05 -3.998270e-05 3.285364e-05 1.025360e-04 1.649248e-04 1.744226e-04
          1.727464e-04 9.198504e-05 4.466611e-05 2.580741e-05 -3.051379e-06 -1.914877e-05
          1.405907e-04 2.720852e-04 2.923596e-04 2.738392e-04 2.261453e-04 1.739942e-04
          1.429281e-04 4.288202e-05 -3.355164e-05 1.927944e-04 -3.072695e-04 -4.455847e-04
          -4.174785e-04 -4.341562e-04 -4.365801e-04 -4.116801e-04 -3.820082e-04 -2.671655e-04
          -8.937900e-05 8.781050e-06 4.481884e-05 8.858003e-07 -3.644445e-05 -8.614771e-05
          6.311384e-06 -1.568872e-04 -2.161082e-04 -3.087349e-04 -2.807670e-04 -2.369769e-04
          9.400585e-05 3.497407e-04 2.606999e-04 1.236717e-04 2.318523e-04 1.406053e-04
          1.171824e-04 1.281569e-04 9.324628e-05 3.635140e-04 3.395851e-04 3.309619e-04
          3.148788e-04 4.938099e-05 6.100619e-05 8.885682e-05 1.377368e-04 1.979308e-04
          1.941866e-04 2.036361e-04 1.917599e-04 2.110804e-04 2.536189e-04 2.984993e-04
          3.363710e-04 4.559253e-04 4.868353e-04 -9.718375e-05 -9.509652e-05 -1.995349e-04
          -2.692695e-04 -2.470113e-04 -2.333570e-04 -2.562373e-04 -2.848720e-04 -3.513037e-04
          -5.467067e-05 -1.125869e-04 -1.314018e-04 -9.769756e-05 -6.126653e-05 -5.952289e-08
          -6.896871e-05 -9.494992e-05 -1.698702e-04 -2.187023e-04 -2.558574e-04 -1.986652e-04
          8.282650e-05 2.336987e-04 3.327746e-04 4.140830e-04 1.594318e-04 1.338942e-05
          6.206296e-06 -3.402442e-06 8.383334e-05 2.516874e-04 3.124756e-04 3.205260e-04
          3.133226e-04 1.285394e-04 7.151584e-05 5.596247e-05 3.503318e-05 3.250480e-05
          2.285246e-04 3.912277e-04 4.106846e-04 3.955899e-04 3.533304e-04 3.022210e-04
          2.701670e-04 1.876780e-04 1.110738e-04 2.477048e-04 -2.166528e-04 -3.285162e-04
          -2.975769e-04 -3.081913e-04 -3.083853e-04 -2.872407e-04 -2.625354e-04 -1.672808e-04
          4.101052e-05 -4.047020e-06 -1.693481e-05 1.072616e-05 3.880504e-05 8.336060e-05
          -2.844576e-05 -1.641141e-04 -2.492612e-04 -2.989486e-04 -3.297902e-04 -2.757636e-04
          -8.763232e-07 1.536479e-04 2.407861e-04 3.102152e-04 7.853565e-05 -7.198234e-05
          -8.173205e-05 -8.968930e-05 -1.341005e-05 1.687529e-04 2.216480e-04 2.281053e-04
          2.198188e-04 1.996819e-05 -3.169280e-05 -4.327513e-05 -5.777988e-05 -5.356022e-05
          1.316833e-04 2.882496e-04 3.065374e-04 2.942575e-04 2.609451e-04 2.234463e-04
          2.008746e-04 1.305360e-04 5.839766e-05 1.363210e-04 -2.698990e-04 -3.804651e-04
          -3.628988e-04 -3.725121e-04 -3.719516e-04 -3.547441e-04 -3.346336e-04 -2.561946e-04
          2.073488e-05 2.838885e-04 3.792744e-04 2.526590e-04 1.320854e-04 -4.951389e-05
          1.397169e-04 -2.820012e-04 -3.243054e-04 -4.448984e-04 -3.440326e-04 -3.296826e-04
          -3.301357e-05 2.810110e-04 -8.931674e-06 -3.680803e-04 1.455658e-04 1.330586e-04
          9.430235e-05 1.273642e-04 -4.922668e-05 2.831328e-04 1.611425e-04 1.341077e-04
          1.109629e-04 -1.943593e-04 -1.021453e-04 -2.825033e-05 9.406209e-05 2.172242e-04
          -2.206133e-05 -1.935560e-04 -2.387203e-04 -1.823991e-04 -4.501173e-05 1.127392e-04
          2.312104e-04 5.599468e-04 7.079503e-04 -6.035033e-04 -1.269314e-05 -8.356454e-05
          -2.653769e-04 -2.112795e-04 -1.846043e-04 -2.555352e-04 -3.418894e-04 -5.919741e-04
          6.026300e-05 -6.606636e-05 -1.047950e-04 -3.747110e-05 2.667225e-05 1.238422e-04
          -1.061722e-04 -2.123084e-04 -3.303007e-04 -3.815741e-04 -4.507996e-04 -3.927864e-04
          -1.634068e-04 -7.752028e-05 1.107785e-04 3.056929e-04 -4.189820e-05 -1.478591e-04
          -1.426978e-04 -1.631126e-04 -5.816105e-05 -5.722169e-05 3.140615e-05 4.648702e-05
          4.968376e-05 3.147608e-05 -3.370992e-05 -6.751973e-05 -1.211258e-04 -1.615272e-04
          4.998375e-05 2.212464e-04 2.525165e-04 2.219040e-04 1.467764e-04 6.784298e-05
          1.752483e-05 -1.563933e-04 -2.692603e-04 2.232758e-04 -4.177083e-04 -5.647177e-04
          -5.087734e-04 -5.394609e-04 -5.473390e-04 -5.073727e-04 -4.591329e-04 -2.889942e-04
          -8.516536e-05 -1.102100e-04 -1.094467e-04 -9.477912e-05 -8.143784e-05 -5.886367e-05
          -1.878773e-04 -3.447648e-04 -4.896925e-04 -6.248467e-04 -6.626103e-04 -6.203720e-04
          -4.070731e-04 -2.894510e-04 -2.222566e-04 -1.500503e-04 -8.000247e-05 3.519736e-05
          4.697054e-05 3.608930e-05 -1.923683e-05 -2.627081e-04 -2.486599e-04 -2.444140e-04
          -2.302367e-04 4.084142e-05 7.311958e-05 6.749173e-05 5.178216e-05 2.160305e-05
          -8.811843e-05 -1.790929e-04 -1.781020e-04 -1.871078e-04 -2.038524e-04 -2.077652e-04
          -1.974876e-04 -2.305206e-04 -2.310182e-04 -1.092512e-04 -4.384563e-04 -6.496009e-04
          -6.838982e-04 -7.003555e-04 -7.016077e-04 -6.903988e-04 -6.759127e-04 -5.911140e-04
          -1.857763e-04 -1.490944e-04 -1.238992e-04 -1.415248e-04 -1.593149e-04 -1.822581e-04
          -2.494062e-04 -4.332500e-04 -5.979911e-04 -7.893784e-04 -8.089493e-04 -7.766350e-04
          -5.755083e-04 -4.405520e-04 -4.469855e-04 -4.480456e-04 -1.084643e-04 1.567696e-04
          1.739854e-04 1.685728e-04 8.893860e-06 -4.089841e-04 -4.418993e-04 -4.442396e-04
          -4.219991e-04 5.342671e-05 1.494550e-04 1.610224e-04 1.677893e-04 1.413504e-04
          -1.799109e-04 -4.441079e-04 -4.623777e-04 -4.583074e-04 -4.392554e-04 -3.964942e-04
          -3.480554e-04 -2.943593e-04 -2.228708e-04 -3.196133e-04 -4.597610e-04 -7.164464e-04
          -8.078658e-04 -8.162088e-04 -8.136086e-04 -8.199137e-04 -8.259019e-04 -7.912189e-04
          -1.309853e-04 -4.194833e-04 -5.095494e-04 -3.647921e-04 -2.266787e-04 -1.382168e-05
          -3.958666e-04 -2.713666e-04 -4.627382e-04 -5.581192e-04 -7.124637e-04 -6.456706e-04
          -5.084502e-04 -5.665967e-04 -1.803125e-04 2.671035e-04 -1.935842e-04 -8.760228e-05
          -4.076903e-05 -8.840603e-05 2.682957e-05 -5.257770e-04 -3.754174e-04 -3.427267e-04
          -3.061861e-04 2.525326e-04 1.921816e-04 1.134371e-04 -2.361307e-05 -1.733064e-04
          -3.123783e-05 6.339965e-05 1.125845e-04 4.482625e-05 -1.150449e-04 -2.781333e-04
          -3.803361e-04 -7.481925e-04 -9.107596e-04 4.619826e-04 -6.832626e-04 -9.507773e-04
          -8.260500e-04 -9.005432e-04 -9.258795e-04 -8.399391e-04 -7.345931e-04 -3.628690e-04
          -2.360093e-04 -5.495236e-06 7.583253e-05 -3.880819e-05 -1.444274e-04 -2.958792e-04
          -1.346283e-06 -9.912180e-05 -1.001185e-04 -2.124066e-04 -1.261110e-04 -1.335179e-04
          5.606474e-06 1.975794e-04 -7.601069e-05 -3.954997e-04 2.069105e-04 3.568999e-04
          3.393790e-04 3.673992e-04 1.583710e-04 2.028559e-04 7.658533e-05 5.259085e-05
          4.549135e-05 4.906962e-05 1.690366e-04 2.324402e-04 3.324531e-04 4.137342e-04
          4.929038e-05 -2.370572e-04 -2.878842e-04 -2.378470e-04 -1.159186e-04 2.186044e-05
          1.272171e-04 4.330759e-04 6.080812e-04 -4.427513e-04 1.533117e-04 1.004681e-04
          -5.675887e-05 -9.780143e-06 1.147351e-05 -5.192751e-05 -1.287482e-04 -3.451080e-04
          -3.333157e-04 -3.482217e-04 -3.592544e-04 -3.532793e-04 -3.396816e-04 -3.051719e-04
          -1.256067e-04 2.383258e-04 2.835557e-04 2.840426e-04 2.755320e-04 2.773423e-04
          2.709158e-04 2.536733e-04 2.556838e-04 2.563664e-04 2.669994e-04 3.154016e-04
          3.235133e-04 3.217685e-04 3.279499e-04 2.610100e-04 2.678340e-04 2.697875e-04
          2.739024e-04 3.502903e-04 3.508800e-04 3.446666e-04 3.348411e-04 3.197171e-04
          2.970205e-04 2.704655e-04 2.669969e-04 2.642301e-04 2.507028e-04 2.240299e-04
          2.059680e-04 2.030125e-04 2.138706e-04 3.008630e-04 2.242152e-04 2.314949e-04
          2.585803e-04 2.603906e-04 2.601760e-04 2.649754e-04 2.702414e-04 2.938325e-04
          -6.877712e-04 -7.331699e-04 -7.591691e-04 -7.414066e-04 -7.104276e-04 -6.367699e-04
          -3.022772e-04 4.580191e-04 5.437636e-04 5.393238e-04 5.137834e-04 5.041121e-04
          3.982460e-04 2.951452e-04 3.128677e-04 3.458312e-04 4.353995e-04 6.344282e-04
          6.624645e-04 6.556252e-04 6.355526e-04 3.103466e-04 3.174925e-04 3.225795e-04
          3.413202e-04 6.983349e-04 7.225596e-04 7.057343e-04 6.749629e-04 6.205444e-04
          4.852993e-04 3.540060e-04 3.443775e-04 3.355700e-04 3.040257e-04 2.507491e-04
          2.160176e-04 1.948201e-04 2.316980e-04 5.502879e-04 4.195548e-04 4.268843e-04
          4.807895e-04 4.774290e-04 4.734624e-04 4.862305e-04 5.015168e-04 5.657744e-04
          -7.757373e-04 -6.217813e-04 -5.782467e-04 -6.611461e-04 -7.261313e-04 -7.960690e-04
          -2.325906e-04 4.152368e-04 5.351684e-04 4.793482e-04 5.375846e-04 4.982005e-04
          3.809090e-04 3.627634e-04 1.323118e-04 -1.123876e-04 5.027473e-04 8.370611e-04
          8.509643e-04 8.701925e-04 6.704750e-04 3.712873e-04 2.603431e-04 2.437169e-04
          2.566656e-04 6.239525e-04 7.526558e-04 7.906900e-04 8.464339e-04 8.612872e-04
          4.068447e-04 2.432522e-05 -2.945689e-05 6.204838e-06 8.525469e-05 1.580138e-04
          2.151965e-04 4.568679e-04 6.486439e-04 9.515994e-05 6.218629e-04 6.518979e-04
          5.763796e-04 6.139135e-04 6.263542e-04 5.819260e-04 5.282807e-04 3.826117e-04
          -6.862689e-04 -7.966339e-04 -8.422204e-04 -7.938286e-04 -7.360514e-04 -6.241530e-04
          -3.910068e-04 3.999965e-04 4.557409e-04 4.426598e-04 3.849840e-04 3.706106e-04
          1.808944e-04 -8.558399e-06 8.761877e-05 2.268860e-04 2.850839e-04 5.825627e-04
          6.284461e-04 6.108151e-04 5.871952e-04 1.116236e-05 3.830945e-05 5.005876e-05
          8.359460e-05 7.006723e-04 7.317947e-04 6.971539e-04 6.326881e-04 5.322311e-04
          3.536196e-04 1.793431e-04 1.767748e-04 1.533435e-04 9.068393e-05 1.002146e-05
          -4.173004e-05 -1.429442e-04 -1.236881e-04 5.675518e-04 2.858018e-04 2.576218e-04
          3.355978e-04 3.131315e-04 3.011470e-04 3.315212e-04 3.690286e-04 5.076863e-04
          -6.612191e-04 -5.114113e-04 -4.636866e-04 -5.449996e-04 -6.133060e-04 -6.950485e-04
          -2.478089e-04 2.281176e-04 2.975543e-04 2.101588e-04 2.611825e-04 2.185601e-04
          7.741249e-05 4.218220e-05 -1.732004e-04 -3.892598e-04 2.988270e-04 7.115572e-04
          7.323064e-04 7.485130e-04 5.068958e-04 5.277066e-05 -6.652936e-05 -8.289207e-05
          -6.160137e-05 4.720170e-04 6.263246e-04 6.644079e-04 7.156752e-04 7.159106e-04
          1.765650e-04 -2.752845e-04 -3.304977e-04 -2.965383e-04 -2.148700e-04 -1.273648e-04
          -5.652133e-05 1.764112e-04 3.785476e-04 -1.099319e-04 4.225141e-04 4.039959e-04
          3.061399e-04 3.357524e-04 3.458635e-04 3.022398e-04 2.505029e-04 1.170416e-04
          -4.660147e-04 -5.241504e-04 -5.486077e-04 -5.242581e-04 -4.935634e-04 -4.309574e-04
          -2.644571e-04 2.457975e-04 2.798142e-04 2.612304e-04 2.281671e-04 2.161142e-04
          8.717019e-05 -3.389855e-05 1.188501e-05 8.571478e-05 1.801279e-04 4.038639e-04
          4.346389e-04 4.245159e-04 3.876610e-04 -2.045443e-05 -1.305721e-05 -6.905881e-06
          1.641439e-05 4.572020e-04 4.905999e-04 4.718317e-04 4.349888e-04 3.709146e-04
          2.112187e-04 6.226994e-05 5.644008e-05 4.416442e-05 1.133370e-05 -3.103130e-05
          -5.663341e-05 -1.033893e-04 -7.551040e-05 3.252066e-04 1.873065e-04 1.622375e-04
          2.011817e-04 1.885354e-04 1.816191e-04 1.974404e-04 2.172132e-04 2.953604e-04
          -2.202147e-04 -1.525540e-04 -1.321676e-04 -1.691244e-04 -2.015289e-04 -2.439112e-04
          -5.296329e-05 1.417418e-04 1.969611e-04 1.899000e-04 2.193791e-04 1.905645e-04
          7.460103e-05 2.785348e-05 -7.507452e-05 -1.771836e-04 9.982855e-05 2.521490e-04
          2.586303e-04 2.675819e-04 1.749387e-04 2.553387e-05 -2.865177e-05 -3.646774e-05
          -3.002318e-05 1.466820e-04 2.063959e-04 2.235071e-04 2.480969e-04 2.537997e-04
          4.620257e-05 -1.273897e-04 -1.504712e-04 -1.343795e-04 -9.573418e-05 -5.553597e-05
          -2.611399e-05 7.642805e-05 1.609824e-04 -6.178885e-05 2.436500e-04 2.809744e-04
          2.448219e-04 2.597187e-04 2.637969e-04 2.431215e-04 2.184064e-04 1.433929e-04
          1.966789e-04 2.563146e-04 2.787892e-04 2.471553e-04 2.107463e-04 1.452497e-04
          1.195722e-04 -5.691215e-05 -2.911112e-05 -9.921021e-07 3.342296e-05 -2.501051e-06
          -1.577627e-04 -2.246922e-04 -3.062961e-04 -3.815929e-04 -2.073101e-04 -1.513636e-04
          -1.540869e-04 -1.448768e-04 -2.076490e-04 -2.400998e-04 -2.877568e-04 -2.953849e-04
          -2.954089e-04 -2.573320e-04 -2.196235e-04 -2.025878e-04 -1.767988e-04 -1.585126e-04
          -2.727145e-04 -3.620821e-04 -3.748344e-04 -3.604402e-04 -3.192977e-04 -2.662062e-04
          -2.316062e-04 -1.586717e-04 -1.091656e-04 -3.220524e-04 4.395923e-05 1.133173e-04
          7.231604e-05 8.213353e-05 8.406479e-05 6.426892e-05 4.091913e-05 -4.725223e-05
          4.133794e-04 3.760718e-04 3.623205e-04 3.821666e-04 3.943314e-04 3.975207e-04
          2.277253e-04 2.039610e-06 3.627423e-05 1.389595e-04 1.427007e-04 1.299690e-04
          3.885551e-05 -2.570218e-05 1.657482e-05 6.200522e-05 -2.027375e-04 -4.014038e-04
          -4.150362e-04 -4.150438e-04 -3.120468e-04 -4.697424e-05 -1.745295e-05 -1.446395e-05
          -2.839148e-05 -3.367551e-04 -4.019462e-04 -4.111209e-04 -4.197247e-04 -4.039430e-04
          -1.709863e-04 2.598995e-05 4.555081e-05 3.877912e-05 2.362140e-05 6.173521e-06
          -1.623966e-05 -8.339897e-05 -1.544157e-04 -4.356705e-05 -1.218951e-05 1.042733e-04
          1.459505e-04 1.416837e-04 1.378283e-04 1.461163e-04 1.555992e-04 1.511009e-04
          4.257304e-04 4.318572e-04 4.278173e-04 4.285742e-04 4.262948e-04 4.108818e-04
          3.458442e-04 1.347006e-04 2.172490e-04 3.566185e-04 3.876151e-04 3.852226e-04
          3.955197e-04 4.199675e-04 4.077460e-04 3.664445e-04 1.016068e-05 -3.679090e-04
          -4.037610e-04 -3.942012e-04 -2.367303e-04 3.919987e-04 4.217158e-04 4.204244e-04
          3.861199e-04 -3.098097e-04 -4.132572e-04 -4.108285e-04 -3.925696e-04 -3.273648e-04
          5.383868e-05 3.799483e-04 4.002862e-04 4.037251e-04 4.057470e-04 3.947022e-04
          3.717464e-04 3.545680e-04 2.704958e-04 6.753043e-05 1.736777e-04 3.531685e-04
          3.972327e-04 4.111812e-04 4.146249e-04 4.115875e-04 4.059261e-04 3.425833e-04
          3.660937e-04 5.073294e-04 5.498742e-04 4.826046e-04 4.159010e-04 3.045115e-04
          4.017995e-04 1.217428e-04 2.320147e-04 3.412656e-04 4.299613e-04 4.088168e-04
          4.200360e-04 5.079738e-04 3.271961e-04 9.500181e-05 7.646471e-05 -2.285967e-04
          -2.757302e-04 -2.481214e-04 -2.037951e-04 4.749916e-04 4.269719e-04 4.110020e-04
          3.710517e-04 -3.531693e-04 -3.914314e-04 -3.517983e-04 -2.742067e-04 -1.589885e-04
          2.552060e-05 1.978640e-04 1.891565e-04 2.227695e-04 2.990807e-04 3.714200e-04
          4.087314e-04 5.692753e-04 5.861620e-04 -2.190623e-04 3.270769e-04 5.279155e-04
          4.873276e-04 5.299142e-04 5.448354e-04 5.030765e-04 4.506387e-04 2.437420e-04
          3.315200e-04 2.153302e-04 1.737798e-04 2.318943e-04 2.819661e-04 3.454649e-04
          1.337238e-04 5.911887e-05 8.609323e-05 1.967291e-04 1.645685e-04 1.570766e-04
          2.938089e-05 -9.812396e-05 3.610758e-05 1.922044e-04 -2.027480e-04 -3.734964e-04
          -3.735209e-04 -3.847954e-04 -2.405190e-04 -1.135667e-04 -4.619099e-05 -3.469261e-05
          -3.943485e-05 -2.108926e-04 -2.968123e-04 -3.280744e-04 -3.743814e-04 -3.995251e-04
          -1.202489e-04 1.065284e-04 1.382258e-04 1.139041e-04 5.556717e-05 -1.084032e-05
          -6.735780e-05 -2.307056e-04 -3.414058e-04 1.601625e-04 -4.893366e-05 4.882744e-05
          1.389587e-04 1.174932e-04 1.062637e-04 1.367349e-04 1.733617e-04 2.571492e-04
          1.513020e-04 4.052376e-04 4.934827e-04 3.634260e-04 2.333880e-04 2.670914e-05
          2.412506e-04 -2.207674e-05 7.072627e-05 8.371827e-05 2.068007e-04 1.349802e-04
          -6.793038e-05 -7.307185e-05 -4.038201e-04 -7.594238e-04 -1.222307e-04 1.597975e-05
          -4.736031e-06 3.188344e-05 -1.806405e-04 -1.013687e-04 -2.617109e-04 -2.907821e-04
          -3.011973e-04 -3.498039e-04 -2.259693e-04 -1.553233e-04 -4.335048e-05 5.062276e-05
          -3.212205e-04 -6.109601e-04 -6.645184e-04 -6.061306e-04 -4.568451e-04 -2.842250e-04
          -1.659767e-04 1.620950e-04 3.534906e-04 -7.249233e-04 3.313191e-04 4.726034e-04
          3.181406e-04 3.709260e-04 3.888956e-04 3.123940e-04 2.204421e-04 -8.655761e-05
          2.931337e-04 2.995366e-04 3.018381e-04 2.940542e-04 2.774948e-04 2.366216e-04
          1.551555e-04 5.202367e-05 1.253854e-04 2.230322e-04 2.461689e-04 1.832280e-04
          -1.683109e-04 -3.829842e-04 -4.186575e-04 -4.233842e-04 -3.409714e-04 -2.693658e-04
          -2.624699e-04 -2.581206e-04 -2.865376e-04 -4.097918e-04 -4.425505e-04 -4.456537e-04
          -4.400492e-04 -3.207197e-04 -2.991435e-04 -2.970009e-04 -2.963321e-04 -3.051769e-04
          -3.822216e-04 -4.469453e-04 -4.513458e-04 -4.471471e-04 -4.286218e-04 -4.006673e-04
          -3.892183e-04 -3.832034e-04 -3.577950e-04 -2.652852e-04 1.260401e-04 2.782592e-04
          2.808498e-04 2.800417e-04 2.745184e-04 2.666420e-04 2.581283e-04 1.978731e-04
          1.051605e-04 1.299688e-04 1.318495e-04 1.150346e-04 9.604691e-05 6.120505e-05
          1.495996e-04 2.794151e-04 4.143255e-04 5.383626e-04 5.739513e-04 5.116391e-04
          1.788343e-04 -1.678280e-05 -8.843252e-05 -1.447760e-04 -8.364626e-05 -6.459439e-05
          -6.371334e-05 -5.455037e-05 -5.739020e-05 -4.473632e-05 -7.852521e-05 -8.342817e-05
          -8.541405e-05 -1.076627e-04 -1.011681e-04 -9.575160e-05 -8.522232e-05 -7.727919e-05
          -1.061552e-04 -1.323739e-04 -1.400933e-04 -1.308354e-04 -1.079565e-04 -8.878141e-05
          -8.620048e-05 -4.945771e-05 -1.798696e-05 -4.488613e-05 3.839440e-04 5.870273e-04
          6.055245e-04 6.162425e-04 6.143928e-04 6.017554e-04 5.865039e-04 5.008539e-04
          -2.310954e-04 -2.219785e-04 -2.340359e-04 -2.399220e-04 -2.361055e-04 -2.177322e-04
          7.364520e-05 5.403790e-04 7.089064e-04 8.306879e-04 8.564896e-04 8.348201e-04
          7.227847e-04 6.566742e-04 6.038505e-04 5.330357e-04 4.022090e-04 2.635953e-04
          2.528345e-04 2.616485e-04 3.495527e-04 6.410943e-04 6.472310e-04 6.456228e-04
          6.295654e-04 3.117578e-04 2.614218e-04 2.604982e-04 2.688752e-04 2.952286e-04
          4.539173e-04 5.803556e-04 5.805388e-04 5.859481e-04 5.847790e-04 5.553337e-04
          5.231421e-04 5.464737e-04 5.372526e-04 4.498341e-04 6.011070e-04 7.913378e-04
          8.534951e-04 8.726124e-04 8.755372e-04 8.712030e-04 8.640242e-04 8.126338e-04
          -2.893127e-04 -3.028674e-04 -3.204934e-04 -3.139984e-04 -2.972730e-04 -2.566894e-04
          -1.998709e-06 4.537610e-04 5.746241e-04 6.536684e-04 6.605295e-04 6.592621e-04
          6.434569e-04 6.256176e-04 6.129489e-04 5.822825e-04 4.220150e-04 2.970836e-04
          2.899378e-04 2.934060e-04 3.834268e-04 6.207877e-04 6.432307e-04 6.447647e-04
          6.323899e-04 3.741029e-04 3.220569e-04 3.152071e-04 3.125791e-04 3.264053e-04
          4.878943e-04 6.155139e-04 6.196117e-04 6.187601e-04 6.024739e-04 5.587972e-04
          5.206963e-04 5.150489e-04 4.916914e-04 4.931546e-04 4.629400e-04 5.789611e-04