<?xml version="1.0"?>
<VTKFile type="RectilinearGrid" version="0.1" byte_order="LittleEndian">
  <RectilinearGrid WholeExtent="0 47 0 47 0 47">
    <Piece Extent="0 47 0 47 0 47">
      <PointData Scalars="concentration">
        <DataArray type="Float32" Name="concentration" NumberOfComponents="1" format="ascii">
          3.202751e-05 7.146867e-05 8.476577e-05 6.696675e-05 5.009014e-05 2.494708e-05
          5.090782e-05 -3.167639e-05 -3.474180e-05 -4.439602e-05 -2.744161e-05 -1.982829e-05
          5.853953e-05 1.285493e-04 8.749165e-05 2.941132e-05 5.265146e-05 -4.018469e-06
          -1.494195e-05 -9.294841e-06 -1.286022e-05 1.278786e-04 1.164929e-04 1.126495e-04
          1.044468e-04 -4.061795e-05 -4.208046e-05 -3.095679e-05 -1.048836e-05 1.687261e-05
          3.701117e-05 5.911106e-05 5.541307e-05 6.381253e-05 8.270187e-05 1.024215e-04
          1.161275e-04 1.621481e-04 1.709050e-04 -5.855738e-05 6.253284e-06 4.045354e-06
          -1.779025e-05 -7.985256e-06 -3.076264e-06 -1.309839e-05 -2.608012e-05 -6.565286e-05
          -5.389355e-05 -1.589725e-05 -9.789926e-06 -2.642717e-05 -3.733744e-05 -4.763444e-05
          9.441117e-05 1.940613e-04 2.566526e-04 2.987035e-04 3.241611e-04 3.321575e-04
          4.153214e-04 4.889272e-04 4.361840e-04 3.525767e-04 2.610893e-04 9.513419e-05
          7.549386e-05 8.443053e-05 1.413512e-04 4.828519e-04 4.845111e-04 4.808349e-04
          4.618709e-04 9.793414e-05 5.956853e-05 6.908122e-05 9.261270e-05 1.370754e-04
          2.801361e-04 4.029480e-04 4.031633e-04 4.123982e-04 4.257741e-04 4.256558e-04
          4.201176e-04 4.665027e-04 4.553695e-04 1.773275e-04 2.444498e-04 3.164088e-04
          3.270796e-04 3.451559e-04 3.519963e-04 3.423615e-04 3.287424e-04 2.751237e-04
          -1.396909e-04 8.624752e-05 1.554030e-04 4.441248e-05 -5.472975e-05 -1.956479e-04
          1.964726e-04 2.328305e-04 3.519526e-04 3.692954e-04 4.781315e-04 4.606161e-04
          5.499210e-04 7.158295e-04 4.255694e-04 6.864610e-05 4.042776e-04 2.972594e-04
          2.582193e-04 2.934482e-04 2.139769e-04 7.005109e-04 5.986210e-04 5.745051e-04
          5.435727e-04 5.777017e-05 9.692578e-05 1.578928e-04 2.655378e-04 3.865825e-04
          3.018179e-04 2.488921e-04 2.105433e-04 2.621113e-04 3.775928e-04 4.882413e-04
          5.610934e-04 8.540740e-04 9.749214e-04 -1.625832e-04 5.187001e-04 6.439231e-04
          5.461468e-04 6.065658e-04 6.300192e-04 5.665490e-04 4.875622e-04 2.285519e-04
          -6.056577e-05 -2.271421e-04 -2.914620e-04 -2.077413e-04 -1.232731e-04 1.022854e-05
          -5.308442e-05 2.564996e-04 2.905827e-04 3.736561e-04 3.104971e-04 3.306501e-04
          3.148049e-04 2.270842e-04 4.188624e-04 6.274670e-04 1.346561e-04 -2.729996e-05
          -1.862511e-05 -3.785663e-05 1.474113e-04 2.291585e-04 3.331468e-04 3.511895e-04
          3.504842e-04 2.297669e-04 1.225132e-04 7.520431e-05 4.235092e-06 -4.591245e-05
          2.815204e-04 5.389910e-04 5.760593e-04 5.400295e-04 4.439975e-04 3.230100e-04
          2.312659e-04 1.758221e-05 -1.161810e-04 5.924925e-04 6.700989e-05 1.108228e-04
          2.453837e-04 2.179280e-04 2.054696e-04 2.531567e-04 3.095342e-04 4.731552e-04
          -7.147049e-05 8.473921e-05 1.379585e-04 5.906463e-05 -1.571166e-05 -1.268635e-04
          7.052709e-05 1.013731e-05 5.185848e-05 2.522200e-05 9.349232e-05 6.824714e-05
          4.926532e-05 1.101172e-04 -8.774544e-05 -3.104533e-04 8.001192e-05 1.651425e-04
          1.523870e-04 1.736410e-04 4.435280e-05 1.028696e-04 1.192701e-05 -5.220056e-06
          -1.182542e-05 -4.599876e-05 2.893234e-05 7.169737e-05 1.402748e-04 1.979859e-04
          -2.884465e-05 -2.065873e-04 -2.404708e-04 -2.052820e-04 -1.190642e-04 -2.301031e-05
          4.565010e-05 2.517685e-04 3.695915e-04 -3.217432e-04 2.071091e-04 2.446757e-04
          1.497000e-04 1.831232e-04 1.962901e-04 1.514501e-04 9.689354e-05 -7.265317e-05
          -1.672039e-05 1.411508e-04 2.008035e-04 1.204456e-04 4.022195e-05 -8.359700e-05
          2.024191e-05 -1.827242e-04 -1.980971e-04 -2.729716e-04 -2.126045e-04 -2.392063e-04
          -2.686693e-04 -2.153540e-04 -4.043447e-04 -6.048523e-04 -9.863180e-05 9.735415e-05
          9.367868e-05 1.118883e-04 -7.634985e-05 -2.171864e-04 -3.213499e-04 -3.387024e-04
          -3.346403e-04 -1.510685e-04 -3.976642e-05 4.428299e-06 6.987638e-05 1.102824e-04
          -2.395498e-04 -5.187591e-04 -5.571289e-04 -5.225613e-04 -4.312045e-04 -3.172795e-04
          -2.310686e-04 -2.341686e-05 1.159697e-04 -5.263982e-04 4.070450e-06 -2.602236e-05
          -1.504636e-04 -1.244995e-04 -1.131378e-04 -1.584334e-04 -2.125551e-04 -3.690546e-04
          5.236918e-05 -1.668099e-04 -2.373510e-04 -1.286307e-04 -2.845892e-05 1.199454e-04
          -1.926903e-04 -1.267208e-04 -2.208304e-04 -2.274079e-04 -3.314126e-04 -3.066424e-04
          -3.472707e-04 -4.792312e-04 -2.001655e-04 1.330951e-04 -2.498733e-04 -2.016893e-04
          -1.684447e-04 -2.015768e-04 -9.506805e-05 -4.631129e-04 -3.551587e-04 -3.314645e-04
          -3.068506e-04 5.320069e-05 -3.188124e-06 -6.307048e-05 -1.656245e-04 -2.741666e-04
          -1.302277e-04 -2.824581e-05 1.077434e-05 -3.904973e-05 -1.554399e-04 -2.745271e-04
          -3.550134e-04 -6.378361e-04 -7.658003e-04 2.993066e-04 -4.062431e-04 -5.133762e-04
          -4.046282e-04 -4.593790e-04 -4.803778e-04 -4.175868e-04 -3.408587e-04 -8.946125e-05
          -1.042672e-04 2.224656e-04 3.361244e-04 1.736562e-04 1.944532e-05 -2.103486e-04
          1.468278e-04 -1.025636e-04 -6.279289e-05 -1.528565e-04 -1.643978e-05 -4.613056e-05
          4.721410e-05 2.596386e-04 -1.363479e-04 -5.950305e-04 1.726215e-04 2.970751e-04
          2.643008e-04 3.074401e-04 4.973520e-05 2.511083e-04 7.272088e-05 3.769486e-05
          1.988295e-05 -1.344722e-04 1.102583e-05 1.013534e-04 2.470562e-04 3.765768e-04
          -4.974998e-05 -3.780714e-04 -4.446744e-04 -3.723569e-04 -1.952550e-04 4.342648e-06
          1.496585e-04 5.740512e-04 8.022580e-04 -6.987606e-04 2.832967e-04 3.030091e-04
          9.438163e-05 1.632939e-04 1.923836e-04 1.004073e-04 -1.137582e-05 -3.500048e-04
          -6.258956e-05 -8.797454e-05 -9.962762e-05 -8.543591e-05 -6.891309e-05 -3.899442e-05
          -1.293412e-05 7.716830e-05 8.424517e-05 9.364038e-05 8.308741e-05 9.860246e-05
          1.683845e-04 2.007202e-04 2.331372e-04 2.574411e-04 1.287688e-04 5.048740e-05
          4.689726e-05 4.434818e-05 9.675795e-05 2.040854e-04 2.298639e-04 2.330677e-04
          2.280466e-04 1.088385e-04 7.646075e-05 6.896922e-05 6.005204e-05 6.103727e-05
          1.673894e-04 2.539772e-04 2.619957e-04 2.562846e-04 2.374965e-04 2.099938e-04
          1.893875e-04 1.562329e-04 1.234312e-04 1.884774e-04 3.900547e-05 3.815817e-05
          6.579453e-05 6.418213e-05 6.397170e-05 7.258652e-05 8.201792e-05 1.120756e-04
          -9.824871e-05 -6.572868e-05 -5.969043e-05 -7.408057e-05 -8.304606e-05 -8.955695e-05
          3.794264e-05 1.400582e-04 1.791249e-04 1.942744e-04 2.118103e-04 2.219789e-04
          3.095497e-04 3.811289e-04 3.385740e-04 2.713120e-04 2.304433e-04 1.266310e-04
          1.132347e-04 1.197831e-04 1.512391e-04 3.802705e-04 3.795029e-04 3.765258e-04
          3.636753e-04 1.231489e-04 1.012042e-04 1.093482e-04 1.279295e-04 1.596119e-04
          2.424381e-04 3.138826e-04 3.119567e-04 3.194756e-04 3.304497e-04 3.314533e-04
          3.295414e-04 3.716309e-04 3.704441e-04 1.461117e-04 1.761158e-04 2.094867e-04
          2.123034e-04 2.262106e-04 2.318987e-04 2.241120e-04 2.132866e-04 1.763676e-04
          -9.607165e-05 -6.046302e-05 -5.377225e-05 -6.982055e-05 -8.024402e-05 -8.909818e-05
          4.654957e-05 1.545645e-04 2.000678e-04 2.204109e-04 2.403371e-04 2.486146e-04
          3.280592e-04 3.961394e-04 3.482751e-04 2.750922e-04 2.358153e-04 1.277113e-04
          1.136024e-04 1.209084e-04 1.531549e-04 3.941018e-04 3.917288e-04 3.884066e-04
          3.747623e-04 1.215073e-04 9.896888e-05 1.079266e-04 1.280753e-04 1.618490e-04
          2.468788e-04 3.203209e-04 3.179800e-04 3.262905e-04 3.390190e-04 3.413547e-04
          3.398499e-04 3.859338e-04 3.861850e-04 1.473388e-04 1.968970e-04 2.393151e-04
          2.423838e-04 2.574233e-04 2.633214e-04 2.544812e-04 2.424221e-04 1.998864e-04
          5.640163e-06 6.843240e-06 6.904193e-06 7.448009e-06 8.435340e-06 1.074947e-05
          7.735074e-06 -1.381246e-05 -2.176426e-05 -2.705444e-05 -2.758423e-05 -1.896585e-05
          3.209052e-05 6.550800e-05 6.905879e-05 6.630198e-05 3.280481e-05 -3.987721e-06
          -7.753026e-06 -7.509451e-06 5.480140e-06 6.715877e-05 7.303176e-05 7.331315e-05
          6.996216e-05 4.193288e-06 -5.336286e-06 -4.867601e-06 -2.895988e-06 3.520207e-06
          3.915876e-05 7.004593e-05 7.207214e-05 7.195316e-05 7.045323e-05 6.795330e-05
          6.620173e-05 6.513958e-05 5.600419e-05 2.210165e-05 -2.039762e-05 -3.106831e-05
          -3.064574e-05 -2.972060e-05 -2.876313e-05 -2.818667e-05 -2.784090e-05 -2.526267e-05
          1.111041e-04 9.685470e-05 9.628882e-05 1.043729e-04 1.085339e-04 1.098205e-04
          -7.162299e-06 -1.731272e-04 -2.274236e-04 -2.570917e-04 -2.688939e-04 -2.597293e-04
          -2.194203e-04 -1.998917e-04 -1.678413e-04 -1.298997e-04 -1.398497e-04 -1.253790e-04
          -1.232292e-04 -1.270730e-04 -1.362737e-04 -1.959357e-04 -1.889611e-04 -1.870773e-04
          -1.835883e-04 -1.213599e-04 -1.172371e-04 -1.200469e-04 -1.267480e-04 -1.356703e-04
          -1.459187e-04 -1.527115e-04 -1.487577e-04 -1.530682e-04 -1.592289e-04 -1.573730e-04
          -1.533568e-04 -1.780816e-04 -1.896000e-04 -1.214387e-04 -2.060642e-04 -2.608752e-04
          -2.715599e-04 -2.795831e-04 -2.814123e-04 -2.766829e-04 -2.704854e-04 -2.444362e-04
          1.065144e-04 1.607617e-04 1.831571e-04 1.575252e-04 1.301128e-04 8.410836e-05
          4.783246e-05 -1.688774e-04 -2.054950e-04 -2.422385e-04 -2.231576e-04 -2.191516e-04
          -1.515689e-04 -8.161173e-05 -1.334832e-04 -1.962181e-04 -8.057768e-05 -7.594140e-05
          -8.392915e-05 -7.795343e-05 -1.249761e-04 -8.133365e-05 -1.080342e-04 -1.134619e-04
          -1.169791e-04 -1.541429e-04 -1.299650e-04 -1.138656e-04 -8.864434e-05 -6.447725e-05
          -1.267038e-04 -1.707061e-04 -1.788624e-04 -1.678550e-04 -1.375573e-04 -9.683028e-05
          -6.566600e-05 -2.892722e-06 2.552181e-05 -2.397535e-04 -1.188398e-04 -1.542939e-04
          -2.031664e-04 -1.950602e-04 -1.903262e-04 -2.049594e-04 -2.224108e-04 -2.715125e-04
          7.665506e-05 8.244950e-06 -1.539153e-05 2.118760e-05 5.627613e-05 1.083527e-04
          2.336465e-06 -3.180407e-05 -6.204443e-05 -5.217156e-05 -8.229217e-05 -5.689311e-05
          3.625948e-05 6.522851e-05 1.604750e-04 2.554216e-04 5.638662e-06 -1.131265e-04
          -1.155403e-04 -1.244301e-04 -3.706589e-05 6.950563e-05 1.214803e-04 1.295754e-04
          1.254708e-04 -2.482317e-06 -5.691539e-05 -7.528679e-05 -1.020802e-04 -1.140782e-04
          6.632070e-05 2.141647e-04 2.340625e-04 2.180883e-04 1.772101e-04 1.298789e-04
          9.555412e-05 -6.962614e-07 -7.377712e-05 1.722613e-04 -1.298055e-04 -1.564389e-04
          -1.117515e-04 -1.247288e-04 -1.289122e-04 -1.080498e-04 -8.319924e-05 -5.793681e-06
          1.648037e-05 1.170958e-04 1.499625e-04 1.024406e-04 5.904207e-05 -5.056396e-06
          1.082455e-04 -2.513765e-06 1.537784e-05 3.901118e-06 4.901408e-05 5.637045e-05
          1.843314e-04 3.156349e-04 1.999878e-04 4.757335e-05 1.512488e-04 5.375560e-05
          3.083866e-05 4.580204e-05 2.287651e-05 3.117402e-04 2.750543e-04 2.649417e-04
          2.473646e-04 -4.642046e-05 -3.962736e-05 -1.161979e-05 3.848620e-05 1.005815e-04
          1.078412e-04 1.249635e-04 1.120162e-04 1.340217e-04 1.838744e-04 2.340011e-04
          2.683506e-04 3.917839e-04 4.292089e-04 -1.192008e-04 1.076959e-04 1.275190e-04
          7.639217e-05 1.023156e-04 1.136751e-04 8.650661e-05 5.281339e-05 -5.403794e-05
          6.952596e-05 1.125384e-05 -9.631008e-06 2.111488e-05 5.045934e-05 9.374945e-05
          1.297590e-05 4.530631e-06 -7.935579e-06 1.275873e-05 -1.057965e-05 5.538257e-06
          5.364511e-05 5.875765e-05 1.357673e-04 2.142164e-04 1.751931e-06 -9.833560e-05
          -9.996015e-05 -1.069587e-04 -3.074064e-05 6.000613e-05 1.024954e-04 1.092534e-04
          1.056252e-04 -4.436894e-06 -5.141897e-05 -6.722374e-05 -9.013721e-05 -1.005671e-04
          5.347264e-05 1.792207e-04 1.958141e-04 1.825975e-04 1.484656e-04 1.081420e-04
          7.781257e-05 -3.537296e-06 -6.425297e-05 1.533857e-04 -7.195253e-05 -7.554213e-05
          -3.378887e-05 -4.425442e-05 -4.818376e-05 -3.087018e-05 -1.030521e-05 5.020770e-05
          4.638525e-05 -4.364117e-06 -1.907747e-05 6.442652e-06 2.846948e-05 5.947641e-05
          -5.056982e-05 -9.778589e-05 -1.400201e-04 -1.557951e-04 -1.824958e-04 -1.745837e-04
          -1.724536e-04 -1.958044e-04 -1.256751e-04 -4.079749e-05 -1.120009e-04 -8.427980e-05
          -7.535060e-05 -8.385492e-05 -7.068626e-05 -1.903687e-04 -1.666618e-04 -1.609192e-04
          -1.535409e-04 -3.241845e-05 -3.925437e-05 -5.267978e-05 -7.694440e-05 -1.049268e-04
          -9.164528e-05 -8.380943e-05 -7.487263e-05 -8.685928e-05 -1.131882e-04 -1.361702e-04
          -1.503691e-04 -2.178865e-04 -2.459692e-04 7.864926e-06 -1.685613e-04 -2.153910e-04
          -1.983778e-04 -2.133393e-04 -2.186889e-04 -2.038135e-04 -1.854358e-04 -1.222725e-04
          -1.304258e-05 2.435802e-04 3.374026e-04 2.089185e-04 8.297832e-05 -1.097404e-04
          8.688338e-05 -2.299465e-04 -2.385534e-04 -3.390913e-04 -2.372744e-04 -2.667601e-04
          -2.321519e-04 -9.088300e-05 -3.953439e-04 -7.352626e-04 -3.724285e-05 1.546776e-04
          1.370654e-04 1.687125e-04 -8.199546e-05 -9.541820e-05 -2.476700e-04 -2.752150e-04
          -2.802938e-04 -2.155664e-04 -7.143008e-05 3.687073e-07 1.114807e-04 1.977261e-04
          -2.397304e-04 -5.824096e-04 -6.382443e-04 -5.820848e-04 -4.385143e-04 -2.662273e-04
          -1.379890e-04 1.943496e-04 3.917181e-04 -7.306414e-04 6.871775e-05 4.271204e-05
          -1.431892e-04 -9.559518e-05 -7.497392e-05 -1.476648e-04 -2.349731e-04 -4.933522e-04
          7.084354e-05 -6.138637e-05 -1.013552e-04 -3.584930e-05 2.234496e-05 1.060079e-04
          -1.334297e-04 -1.716118e-04 -2.560031e-04 -2.809018e-04 -3.475187e-04 -3.326942e-04
          -3.599061e-04 -4.418141e-04 -2.674771e-04 -5.449451e-05 -2.403118e-04 -1.668915e-04
          -1.431486e-04 -1.644583e-04 -1.247660e-04 -4.298543e-04 -3.695707e-04 -3.551218e-04
          -3.360313e-04 -2.831572e-05 -4.771393e-05 -8.327304e-05 -1.466932e-04 -2.195550e-04
          -1.821983e-04 -1.611346e-04 -1.389941e-04 -1.695787e-04 -2.380112e-04 -3.018152e-04
          -3.426948e-04 -5.147279e-04 -5.843692e-04 8.198746e-05 -3.463521e-04 -4.415488e-04
          -3.889591e-04 -4.256826e-04 -4.394049e-04 -4.014359e-04 -3.544670e-04 -1.962234e-04
          7.965774e-05 5.460315e-05 5.560200e-05 6.710402e-05 7.152241e-05 7.138989e-05
          -1.117386e-04 -3.212528e-04 -4.254220e-04 -5.058962e-04 -5.324631e-04 -5.300083e-04
          -5.442803e-04 -5.685767e-04 -5.186053e-04 -4.411485e-04 -3.041933e-04 -1.202785e-04
          -1.015014e-04 -1.104384e-04 -1.914585e-04 -5.570467e-04 -5.636873e-04 -5.609334e-04
          -5.409071e-04 -1.463505e-04 -9.543135e-05 -1.007242e-04 -1.187945e-04 -1.604551e-04
          -3.392149e-04 -4.888878e-04 -4.912214e-04 -4.986370e-04 -5.057696e-04 -4.930433e-04
          -4.755920e-04 -5.086576e-04 -4.901568e-04 -2.783058e-04 -3.745576e-04 -4.999731e-04
          -5.331624e-04 -5.519533e-04 -5.575073e-04 -5.501538e-04 -5.393380e-04 -4.849431e-04
          8.595014e-05 1.272427e-04 1.536931e-04 1.317849e-04 1.029387e-04 5.090140e-05
          -9.880032e-05 -4.172351e-04 -5.348703e-04 -6.507063e-04 -6.526618e-04 -6.574407e-04
          -6.612951e-04 -6.484006e-04 -6.750706e-04 -6.812635e-04 -3.445397e-04 -9.239447e-05
          -7.675379e-05 -7.806758e-05 -2.339962e-04 -6.369804e-04 -6.849220e-04 -6.894102e-04
          -6.687952e-04 -2.204760e-04 -1.259542e-04 -1.124891e-04 -1.024766e-04 -1.247676e-04
          -4.373194e-04 -6.926305e-04 -7.100817e-04 -7.031831e-04 -6.723742e-04 -6.121999e-04
          -5.584917e-04 -5.056144e-04 -4.327017e-04 -5.029333e-04 -3.958944e-04 -5.415524e-04
          -6.282402e-04 -6.359683e-04 -6.364419e-04 -6.480410e-04 -6.595500e-04 -6.690605e-04
          1.166504e-04 -1.671398e-04 -2.558753e-04 -1.152403e-04 1.268340e-05 1.988642e-04
          -2.579697e-04 -2.576131e-04 -4.064766e-04 -4.334143e-04 -5.715932e-04 -5.380927e-04
          -5.843738e-04 -7.514010e-04 -3.839021e-04 5.805552e-05 -4.062826e-04 -3.143168e-04
          -2.692060e-04 -3.130424e-04 -1.939145e-04 -7.288730e-04 -5.920579e-04 -5.613993e-04
          -5.265567e-04 3.177003e-06 -5.892296e-05 -1.357908e-04 -2.695563e-04 -4.149066e-04
          -2.632710e-04 -1.590623e-04 -1.090988e-04 -1.741767e-04 -3.231947e-04 -4.703223e-04
          -5.676525e-04 -9.357617e-04 -1.097262e-03 2.955449e-04 -6.257996e-04 -7.927410e-04
          -6.639661e-04 -7.377293e-04 -7.657385e-04 -6.847566e-04 -5.845352e-04 -2.533771e-04
          -7.351833e-05 1.610062e-04 2.440610e-04 1.264595e-04 1.398378e-05 -1.552234e-04
          8.382808e-05 -1.111413e-04 -9.236987e-05 -1.671277e-04 -7.127735e-05 -9.749488e-05
          -6.104674e-05 7.104164e-05 -2.134878e-04 -5.360426e-04 6.637030e-05 2.073209e-04
          1.883666e-04 2.186703e-04 1.009714e-05 6.561313e-05 -6.902820e-05 -9.442173e-05
          -1.025878e-04 -1.167030e-04 3.016965e-06 6.805564e-05 1.706754e-04 2.552039e-04
          -1.049281e-04 -3.861949e-04 -4.364940e-04 -3.847403e-04 -2.555308e-04 -1.064587e-04
          3.267309e-06 3.095904e-04 4.850888e-04 -5.608305e-04 1.669503e-04 1.689028e-04
          1.133849e-05 5.855188e-05 7.834502e-05 1.164685e-05 -6.840385e-05 -3.091703e-04
          -4.843693e-05 -6.088227e-05 -6.922612e-05 -6.317578e-05 -5.475820e-05 -3.899785e-05
          1.873283e-05 1.432410e-04 1.840998e-04 2.203741e-04 2.209429e-04 2.189440e-04
          1.991462e-04 1.813035e-04 1.865397e-04 1.879991e-04 1.054598e-04 4.925464e-05
          4.650200e-05 4.708519e-05 8.716999e-05 1.776680e-04 1.895461e-04 1.906809e-04
          1.860176e-04 8.444661e-05 6.092742e-05 5.672333e-05 5.284893e-05 5.625999e-05
          1.313525e-04 1.915632e-04 1.954151e-04 1.934977e-04 1.846669e-04 1.670523e-04
          1.512534e-04 1.372936e-04 1.209343e-04 1.558444e-04 1.400410e-04 1.879867e-04
          2.143880e-04 2.166461e-04 2.163784e-04 2.194783e-04 2.229007e-04 2.250262e-04
          3.385280e-05 -9.970182e-06 -3.082414e-05 -9.177119e-06 1.298195e-05 4.683082e-05
          6.690394e-05 2.052886e-04 2.695397e-04 3.493991e-04 3.438239e-04 3.361667e-04
          2.621290e-04 1.976211e-04 2.349135e-04 2.738016e-04 7.236410e-05 -4.139671e-05
          -4.477478e-05 -4.649208e-05 4.042088e-05 1.875985e-04 2.178337e-04 2.220376e-04
          2.148605e-04 4.176129e-05 -9.360400e-06 -2.233694e-05 -3.839176e-05 -3.988439e-05
          1.243729e-04 2.567888e-04 2.693429e-04 2.612970e-04 2.365881e-04 1.988786e-04
          1.650750e-04 1.076212e-04 6.019128e-05 2.297335e-04 1.790222e-04 2.741311e-04
          3.307960e-04 3.286570e-04 3.254025e-04 3.364431e-04 3.491671e-04 3.686136e-04
          4.927905e-05 2.052672e-04 2.551278e-04 1.766940e-04 1.015246e-04 -1.400660e-05
          1.847978e-04 1.111962e-04 2.008616e-04 2.361800e-04 3.164141e-04 2.810504e-04
          2.100751e-04 2.423604e-04 3.560592e-05 -2.012171e-04 8.435564e-05 6.347715e-05
          4.155276e-05 6.641234e-05 -1.317736e-05 2.229446e-04 1.385404e-04 1.209880e-04
          1.045765e-04 -1.285819e-04 -8.492706e-05 -4.233546e-05 3.025432e-05 1.053341e-04
          -1.004593e-05 -9.366531e-05 -1.221247e-04 -8.569788e-05 1.113761e-06 9.226899e-05
          1.513882e-04 3.516709e-04 4.472423e-04 -2.789960e-04 3.294518e-04 4.519861e-04
          3.776271e-04 4.161757e-04 4.295156e-04 3.832367e-04 3.267654e-04 1.317733e-04
          1.279013e-04 1.976588e-05 -1.932021e-05 3.388877e-05 8.228256e-05 1.506750e-04
          2.006289e-05 8.513247e-05 1.037598e-04 1.746490e-04 1.376541e-04 1.324392e-04
          1.857930e-05 -1.017432e-04 2.068927e-05 1.675859e-04 -1.131086e-04 -1.810169e-04
          -1.720841e-04 -1.842796e-04 -8.460582e-05 -1.081531e-04 -5.186151e-05 -4.087660e-05
          -3.755844e-05 -3.853034e-05 -9.494381e-05 -1.249411e-04 -1.720467e-04 -2.105069e-04
          -4.038813e-05 9.264291e-05 1.159936e-04 9.311928e-05 3.725318e-05 -2.646177e-05
          -7.675119e-05 -2.195706e-04 -2.994701e-04 2.061304e-04 -2.260283e-05 3.020950e-05
          1.084875e-04 8.717408e-05 7.660997e-05 1.055655e-04 1.406447e-04 2.335807e-04
          6.113638e-05 2.133419e-04 2.664766e-04 1.897603e-04 1.139293e-04 -4.525902e-06
          1.251792e-04 -4.308280e-05 -5.698632e-06 -1.704477e-05 5.277485e-05 2.223263e-05
          -2.800718e-05 1.368554e-05 -1.775734e-04 -3.899716e-04 -2.687082e-05 3.602501e-05
          2.148843e-05 4.288067e-05 -7.878998e-05 1.339651e-06 -8.851043e-05 -1.055053e-04
          -1.133552e-04 -1.755533e-04 -1.059763e-04 -6.371342e-05 4.149326e-06 6.380782e-05
          -1.401742e-04 -2.972889e-04 -3.282382e-04 -2.937170e-04 -2.069397e-04 -1.069017e-04
          -3.683495e-05 1.586556e-04 2.669351e-04 -4.059135e-04 1.551115e-04 2.091636e-04
          1.139498e-04 1.456311e-04 1.576090e-04 1.129530e-04 5.914554e-05 -1.149954e-04
          5.659222e-05 -5.232592e-07 -2.101096e-05 7.152417e-06 3.284379e-05 6.964808e-05
          1.327021e-06 3.758721e-05 4.349913e-05 7.581056e-05 5.524157e-05 5.372649e-05
          1.824710e-07 -5.954885e-05 6.031425e-06 8.458473e-05 -5.702997e-05 -8.614784e-05
          -8.085273e-05 -8.753932e-05 -3.812584e-05 -6.184653e-05 -3.226032e-05 -2.643043e-05
          -2.404897e-05 -1.181063e-05 -3.959739e-05 -5.544626e-05 -8.060272e-05 -1.020516e-04
          -1.927599e-05 4.499872e-05 5.695636e-05 4.479476e-05 1.505421e-05 -1.845384e-05
          -4.445251e-05 -1.195057e-04 -1.603750e-04 1.082123e-04 -2.139686e-05 -6.843968e-07
          3.920176e-05 2.759823e-05 2.204148e-05 3.750754e-05 5.624633e-05 1.075930e-04
          4.950448e-05 1.179380e-04 1.416822e-04 1.070994e-04 7.243491e-05 1.741350e-05
          6.987534e-05 -1.540645e-05 5.775159e-06 7.570698e-06 4.037778e-05 2.407083e-05
          -1.261346e-05 -2.263898e-06 -8.939250e-05 -1.851882e-04 -2.704246e-05 -3.891242e-06
          -1.084427e-05 -9.130692e-07 -5.325226e-05 -9.493878e-06 -5.036326e-05 -5.807729e-05
          -6.207631e-05 -9.939608e-05 -6.959106e-05 -5.057476e-05 -1.982038e-05 7.827807e-06
          -7.854930e-05 -1.445814e-04 -1.581190e-04 -1.424874e-04 -1.029242e-04 -5.718866e-05
          -2.583897e-05 6.128328e-05 1.089348e-04 -1.920700e-04 7.691113e-05 1.109617e-04
          6.936368e-05 8.367765e-05 8.889847e-05 6.862397e-05 4.408676e-05 -3.750038e-05
          8.602969e-05 1.469135e-04 1.713814e-04 1.401926e-04 1.066251e-04 5.048398e-05
          4.046652e-05 -1.212223e-04 -1.332054e-04 -1.556592e-04 -1.306679e-04 -1.464117e-04
          -1.879089e-04 -1.849374e-04 -2.566114e-04 -3.283146e-04 -1.297370e-04 -5.229817e-05
          -5.379520e-05 -4.672751e-05 -1.235537e-04 -1.890127e-04 -2.321386e-04 -2.390222e-04
          -2.369515e-04 -1.565692e-04 -1.114163e-04 -9.392534e-05 -6.849967e-05 -5.312328e-05
          -1.927304e-04 -3.031112e-04 -3.170792e-04 -3.037555e-04 -2.659644e-04 -2.157161e-04
          -1.785699e-04 -1.019038e-04 -4.920777e-05 -2.868895e-04 -4.494222e-05 -4.902361e-05
          -1.014197e-04 -9.297177e-05 -8.937639e-05 -1.074799e-04 -1.289117e-04 -1.945204e-04
          1.677005e-05 -2.088633e-05 -3.516552e-05 -1.634701e-05 2.126722e-06 2.990777e-05
          3.628707e-06 5.225312e-05 6.160489e-05 8.597789e-05 7.298248e-05 7.558823e-05
          6.174313e-05 3.610667e-05 7.908557e-05 1.266536e-04 8.791581e-06 -3.466926e-05
          -3.339946e-05 -3.760327e-05 6.699000e-06 3.492769e-05 5.809340e-05 6.213292e-05
          6.145046e-05 2.267211e-05 -3.206261e-06 -1.379699e-05 -2.948168e-05 -3.963101e-05
          4.090524e-05 1.049339e-04 1.139630e-04 1.058317e-04 8.485267e-05 5.864695e-05
          3.820815e-05 -1.129938e-05 -4.328333e-05 1.165708e-04 1.181524e-05 2.911523e-05
          5.983648e-05 5.356011e-05 5.064476e-05 6.120198e-05 7.359981e-05 1.076061e-04
          -9.785911e-05 -9.404730e-05 -1.006285e-04 -1.014822e-04 -9.603387e-05 -8.070110e-05
          6.115453e-05 2.610680e-04 3.361707e-04 3.944967e-04 4.067308e-04 4.115582e-04
          4.477403e-04 4.743987e-04 4.562652e-04 4.169795e-04 2.700456e-04 1.179741e-04
          1.046260e-04 1.092081e-04 1.861811e-04 4.684714e-04 4.846635e-04 4.844870e-04
          4.693580e-04 1.634287e-04 1.154987e-04 1.151940e-04 1.222859e-04 1.488463e-04
          3.120079e-04 4.470393e-04 4.520728e-04 4.540659e-04 4.495129e-04 4.271932e-04
          4.053024e-04 4.114784e-04 3.854333e-04 2.839067e-04 2.783918e-04 3.624971e-04
          3.986658e-04 4.102712e-04 4.136948e-04 4.130107e-04 4.105807e-04 3.896176e-04
          -1.288409e-04 1.002741e-05 4.990765e-05 -1.839551e-05 -7.695310e-05 -1.576672e-04
          1.372254e-04 2.437780e-04 3.462919e-04 3.789820e-04 4.498500e-04 4.387296e-04
          4.932040e-04 5.953293e-04 4.104306e-04 1.788766e-04 3.406709e-04 2.315297e-04
          2.040065e-04 2.270023e-04 2.026147e-04 5.835536e-04 5.255586e-04 5.107592e-04
          4.873945e-04 9.989117e-05 1.092053e-04 1.461671e-04 2.138053e-04 2.953697e-04
          2.919263e-04 2.991079e-04 2.769011e-04 3.090873e-04 3.782836e-04 4.379925e-04
          4.748504e-04 6.564750e-04 7.237300e-04 2.292736e-06 4.261846e-04 5.355107e-04
          4.890058e-04 5.299508e-04 5.452721e-04 5.060764e-04 4.569384e-04 2.909118e-04
          -1.817783e-07 -1.155909e-04 -1.587690e-04 -1.005914e-04 -4.266379e-05 4.682768e-05
          -2.609535e-05 1.346362e-04 1.469026e-04 1.998812e-04 1.555931e-04 1.714774e-04
          1.722920e-04 1.196993e-04 2.559641e-04 4.039228e-04 5.794150e-05 -6.044953e-05
          -5.538786e-05 -6.912392e-05 5.876746e-05 1.210836e-04 1.935632e-04 2.061081e-04
          2.054371e-04 1.153484e-04 4.079015e-05 8.369021e-06 -4.039563e-05 -7.391113e-05
          1.567777e-04 3.393797e-04 3.660016e-04 3.408187e-04 2.750012e-04 1.934603e-04
          1.320405e-04 -1.810302e-05 -1.137269e-04 3.717209e-04 4.658947e-07 2.213148e-05
          1.113539e-04 9.161516e-05 8.301437e-05 1.159628e-04 1.551127e-04 2.693709e-04
          -3.155699e-05 2.263493e-04 3.147803e-04 1.861713e-04 6.417101e-05 -1.198354e-04
          1.685185e-04 -2.337504e-05 3.428921e-05 -5.466489e-06 1.084706e-04 7.836904e-05
          1.170531e-04 2.646259e-04 -5.417950e-05 -4.238435e-04 1.387481e-04 1.930754e-04
          1.633640e-04 1.989899e-04 1.730450e-05 2.515910e-04 1.123814e-04 8.439887e-05
          6.633087e-05 -1.401929e-04 -3.850513e-05 3.268139e-05 1.494384e-04 2.591319e-04
          -3.072175e-05 -2.507215e-04 -3.010970e-04 -2.433982e-04 -1.026306e-04 5.267015e-05
          1.629946e-04 4.963953e-04 6.681692e-04 -5.296278e-04 2.936881e-04 3.534279e-04
          1.988502e-04 2.558825e-04 2.789888e-04 2.053360e-04 1.157963e-04 -1.649628e-04
          6.976589e-05 7.817036e-05 8.219131e-05 7.747257e-05 7.097109e-05 5.759270e-05
          3.200926e-05 -2.888915e-05 -2.652924e-05 -1.883174e-05 -1.285354e-05 -2.135673e-05
          -6.178306e-05 -8.217887e-05 -9.388065e-05 -1.021205e-04 -7.338681e-05 -6.196611e-05
          -6.214347e-05 -6.094229e-05 -7.249690e-05 -8.617331e-05 -9.498167e-05 -9.621359e-05
          -9.562118e-05 -8.169505e-05 -7.458970e-05 -7.204242e-05 -6.837089e-05 -6.619180e-05
          -8.705827e-05 -1.031974e-04 -1.047627e-04 -1.026994e-04 -9.541512e-05 -8.483639e-05
          -7.801269e-05 -6.895054e-05 -6.165788e-05 -8.536325e-05 -1.173667e-05 3.087597e-06
          -4.684295e-06 -4.058197e-06 -4.040339e-06 -7.174121e-06 -1.102814e-05 -2.653165e-05
          1.030465e-04 1.266405e-04 1.326443e-04 1.199247e-04 1.059065e-04 8.041156e-05
          1.026338e-04 8.184074e-05 1.327197e-04 1.843570e-04 2.058429e-04 1.836932e-04
          8.067730e-05 2.989006e-05 -1.172867e-05 -5.377544e-05 -4.088421e-05 -7.400518e-05
          -7.948529e-05 -7.364464e-05 -6.885617e-05 1.667943e-05 7.044127e-07 -2.521912e-06
          -7.874143e-06 -1.026813e-04 -1.056950e-04 -9.941900e-05 -8.714607e-05 -7.077427e-05
          -5.525536e-05 -4.035823e-05 -4.313702e-05 -3.654866e-05 -2.036567e-05 -4.702732e-06
          1.289927e-06 2.933512e-05 3.927960e-05 -6.141518e-05 1.373706e-04 2.232403e-04
          2.230838e-04 2.306983e-04 2.318899e-04 2.233211e-04 2.124234e-04 1.615071e-04
          3.277484e-06 1.092973e-05 2.624338e-06 -4.588692e-07 1.487856e-06 8.137864e-06
          1.589501e-04 3.600855e-04 4.843542e-04 6.003598e-04 6.256522e-04 6.146323e-04
          5.680360e-04 5.476176e-04 5.133442e-04 4.570903e-04 2.525620e-04 3.534639e-05
          1.624763e-05 2.455041e-05 1.322852e-04 5.296736e-04 5.448950e-04 5.437328e-04
          5.220036e-04 8.568704e-05 1.888804e-05 1.937599e-05 3.077574e-05 6.975982e-05
          2.995747e-04 4.908065e-04 4.982275e-04 5.024126e-04 5.017914e-04 4.800378e-04
          4.529025e-04 4.606256e-04 4.248538e-04 2.960938e-04 4.065401e-04 5.744490e-04
          6.258495e-04 6.419767e-04 6.452774e-04 6.419204e-04 6.358600e-04 5.856112e-04
          -7.758628e-05 -9.325489e-05 -1.078239e-04 -9.991633e-05 -8.701084e-05 -6.148902e-05
          6.973433e-05 3.146916e-04 4.098343e-04 4.947580e-04 5.027647e-04 4.972838e-04
          4.587337e-04 4.291807e-04 4.268656e-04 4.123230e-04 2.336562e-04 8.957316e-05
          8.014242e-05 8.326849e-05 1.726524e-04 4.191797e-04 4.409479e-04 4.423742e-04
          4.292958e-04 1.558103e-04 1.022373e-04 9.628062e-05 9.400921e-05 1.102150e-04
          2.854282e-04 4.278558e-04 4.355323e-04 4.339686e-04 4.207360e-04 3.884832e-04
          3.574649e-04 3.397796e-04 3.058902e-04 3.180137e-04 3.228665e-04 4.394565e-04