<?xml version="1.0"?>
<VTKFile type="RectilinearGrid" version="0.1" byte_order="LittleEndian">
  <RectilinearGrid WholeExtent="0 47 0 47 0 47">
    <Piece Extent="0 47 0 47 0 47">
      <PointData Scalars="concentration">
        <DataArray type="Float32" Name="concentration" NumberOfComponents="1" format="ascii">
          1.383080e-03 1.393851e-03 1.393823e-03 1.393609e-03 1.371804e-03 1.289358e-03
          8.750806e-04 3.983835e-06 1.493717e-04 4.765959e-04 5.499440e-04 5.000145e-04
          2.663342e-04 1.613781e-04 1.385935e-04 9.109826e-05 -5.572497e-04 -1.253655e-03
          -1.320530e-03 -1.301017e-03 -1.027469e-03 8.363003e-05 1.175977e-04 1.131519e-04
          5.165083e-05 -1.197615e-03 -1.379283e-03 -1.372296e-03 -1.337393e-03 -1.216980e-03
          -5.286564e-04 6.696385e-05 1.090603e-04 1.165993e-04 1.377023e-04 1.559067e-04
          1.344784e-04 8.229908e-05 -7.979905e-05 -3.797592e-04 1.180138e-04 5.414063e-04
          6.048614e-04 6.223436e-04 6.230290e-04 6.125910e-04 5.976159e-04 4.349042e-04
          1.067408e-03 1.076763e-03 1.078189e-03 1.077840e-03 1.060247e-03 9.954356e-04
          6.606072e-04 -3.934115e-05 5.775792e-05 2.960674e-04 3.504496e-04 3.150458e-04
          1.526893e-04 8.308791e-05 6.814319e-05 3.467452e-05 -4.480729e-04 -9.704127e-04
          -1.021067e-03 -1.006634e-03 -8.051706e-04 2.540018e-05 5.052898e-05 4.709586e-05
          1.133143e-06 -9.326466e-04 -1.067199e-03 -1.061403e-03 -1.034545e-03 -9.435585e-04
          -4.305580e-04 1.440303e-05 4.622948e-05 5.187355e-05 6.877868e-05 8.545755e-05
          7.212773e-05 3.283798e-05 -8.959697e-05 -3.225899e-04 4.389135e-05 3.500080e-04
          3.925803e-04 4.049177e-04 4.054587e-04 3.973979e-04 3.861025e-04 2.649593e-04
          4.712743e-04 6.759845e-04 7.462909e-04 6.465614e-04 5.430409e-04 3.692476e-04
          4.210487e-04 -7.848111e-05 -3.387757e-06 6.269772e-05 1.737437e-04 1.361835e-04
          1.025110e-04 1.915821e-04 -5.936688e-05 -3.569145e-04 -1.240324e-04 -3.046211e-04
          -3.496093e-04 -3.159115e-04 -3.744589e-04 1.569681e-04 5.933937e-05 3.611222e-05
          2.615538e-06 -5.512203e-04 -5.282486e-04 -4.701398e-04 -3.677085e-04 -2.435340e-04
          -2.524179e-04 -2.346986e-04 -2.598211e-04 -2.127353e-04 -9.537238e-05 3.556552e-05
          1.181318e-04 3.586153e-04 4.383972e-04 -5.926916e-04 2.011242e-04 3.696645e-04
          2.633869e-04 3.118290e-04 3.296710e-04 2.689541e-04 1.948888e-04 -7.410788e-05
          1.728984e-04 -3.299526e-06 -6.246126e-05 2.772583e-05 1.110577e-04 2.324304e-04
          -3.622267e-05 -6.001558e-05 -1.167039e-04 -8.179839e-05 -1.574276e-04 -1.254038e-04
          -8.111491e-05 -1.329816e-04 9.538536e-05 3.488212e-04 -1.332461e-04 -2.736703e-04
          -2.638345e-04 -2.873999e-04 -1.271382e-04 -1.266516e-04 -1.955400e-05 -3.362850e-07
          3.592176e-06 -3.175113e-05 -1.266998e-04 -1.746081e-04 -2.499309e-04 -3.074743e-04
          -9.405893e-06 2.283849e-04 2.698127e-04 2.299285e-04 1.330321e-04 2.631220e-05
          -5.083065e-05 -2.888519e-04 -4.345328e-04 3.208031e-04 -2.848372e-04 -3.256387e-04
          -2.194330e-04 -2.574286e-04 -2.720072e-04 -2.211727e-04 -1.594996e-04 2.901449e-05
          1.889098e-04 3.431827e-04 4.004168e-04 3.267633e-04 2.528334e-04 1.347906e-04
          1.705137e-04 -2.171131e-04 -2.412191e-04 -2.867765e-04 -2.218521e-04 -2.184657e-04
          -6.895571e-05 1.037663e-04 -6.415378e-05 -2.724409e-04 -2.376436e-05 -8.783545e-05
          -1.162072e-04 -9.550723e-05 -1.799747e-04 9.770119e-05 2.826364e-05 1.194600e-05
          -6.211515e-06 -2.799789e-04 -2.393140e-04 -1.951296e-04 -1.208007e-04 -3.888790e-05
          -1.253342e-04 -1.782761e-04 -2.004563e-04 -1.672037e-04 -8.378117e-05 1.427665e-05
          8.496202e-05 2.699052e-04 3.413569e-04 -4.461876e-04 -5.124070e-05 -6.277660e-05
          -1.686086e-04 -1.368826e-04 -1.219459e-04 -1.644842e-04 -2.161338e-04 -3.760878e-04
          4.626433e-04 6.211841e-04 6.798852e-04 6.049695e-04 5.254246e-04 3.887088e-04
          3.360912e-04 -2.388569e-04 -2.412881e-04 -2.295960e-04 -1.505039e-04 -1.565118e-04
          -4.929531e-05 1.059035e-04 -6.771905e-05 -2.858422e-04 -1.477768e-04 -3.365436e-04
          -3.773010e-04 -3.529112e-04 -3.914664e-04 8.537270e-05 2.041117e-05 2.991143e-06
          -2.628077e-05 -5.239929e-04 -5.143473e-04 -4.680181e-04 -3.862451e-04 -2.816274e-04
          -2.482251e-04 -1.966913e-04 -2.114446e-04 -1.763236e-04 -8.729749e-05 1.728800e-05
          8.650114e-05 2.640324e-04 3.072667e-04 -5.448008e-04 -5.003234e-05 1.251589e-05
          -8.551162e-05 -5.070273e-05 -3.556936e-05 -8.068361e-05 -1.359086e-04 -3.278801e-04
          8.442056e-04 6.207981e-04 5.459958e-04 6.623115e-04 7.598354e-04 8.780995e-04
          3.226142e-04 -1.320913e-04 -1.595062e-04 1.421971e-05 -5.414652e-05 -3.304931e-05
          -7.045119e-05 -1.790490e-04 1.102750e-04 4.238329e-04 -4.589379e-04 -9.215935e-04
          -9.360907e-04 -9.590648e-04 -6.455358e-04 -2.030729e-04 -5.179396e-05 -2.882730e-05
          -4.832661e-05 -5.920618e-04 -7.863367e-04 -8.448226e-04 -9.278035e-04 -9.534543e-04
          -2.934367e-04 2.528862e-04 3.242350e-04 2.757134e-04 1.602346e-04 3.418574e-05
          -7.073116e-05 -4.020945e-04 -6.574334e-04 1.981507e-04 -3.780139e-04 -2.669321e-04
          -1.096290e-04 -1.531294e-04 -1.720032e-04 -1.105254e-04 -3.705121e-05 1.406068e-04
          9.171724e-04 1.229680e-03 1.338785e-03 1.187294e-03 1.026753e-03 7.498037e-04
          7.387933e-04 -1.978761e-04 -9.162072e-05 2.973694e-05 2.042007e-04 1.466049e-04
          9.842616e-05 2.411512e-04 -1.362396e-04 -5.870708e-04 -3.008750e-04 -6.513530e-04
          -7.274125e-04 -6.749397e-04 -7.399220e-04 1.816236e-04 3.763113e-05 1.937728e-06
          -5.533770e-05 -1.025166e-03 -1.007634e-03 -9.177960e-04 -7.578841e-04 -5.557939e-04
          -4.985775e-04 -4.088585e-04 -4.415086e-04 -3.694136e-04 -1.882087e-04 1.698983e-05
          1.443535e-04 5.015556e-04 6.026886e-04 -1.004806e-03 2.320251e-04 5.100896e-04
          3.469371e-04 4.206694e-04 4.478772e-04 3.548743e-04 2.409737e-04 -1.809517e-04
          8.687610e-04 8.249897e-04 8.092513e-04 8.346609e-04 8.445246e-04 8.282908e-04
          4.907562e-04 -5.258738e-05 5.283290e-06 1.972841e-04 2.170412e-04 1.961368e-04
          6.670471e-05 -1.318142e-05 4.023475e-05 8.945000e-05 -4.018829e-04 -8.246058e-04
          -8.587049e-04 -8.547350e-04 -6.616864e-04 -5.586486e-05 -8.461899e-06 -5.627872e-06
          -3.810129e-05 -7.307083e-04 -8.561001e-04 -8.654753e-04 -8.672992e-04 -8.172042e-04
          -3.566672e-04 3.714746e-05 7.260493e-05 6.549318e-05 5.126449e-05 3.517467e-05
          4.281514e-06 -9.383960e-05 -2.252861e-04 -1.729764e-04 -5.172905e-05 1.713444e-04
          2.327970e-04 2.306960e-04 2.264021e-04 2.346676e-04 2.436491e-04 2.047731e-04
          3.830639e-04 3.976944e-04 4.000610e-04 3.933980e-04 3.803122e-04 3.465470e-04
          2.653082e-04 6.332123e-05 1.329811e-04 2.451881e-04 2.750711e-04 2.470666e-04
          1.110697e-04 4.247509e-05 1.268733e-05 -2.121174e-05 -1.616916e-04 -3.364451e-04
          -3.541785e-04 -3.462761e-04 -2.804382e-04 1.563990e-05 1.332334e-05 1.039083e-05
          -6.348196e-06 -3.397582e-04 -3.828290e-04 -3.781519e-04 -3.638960e-04 -3.282565e-04
          -1.636323e-04 -2.060689e-05 -1.262399e-05 -7.288070e-06 6.846750e-06 1.973776e-05
          1.752080e-05 2.031160e-05 -1.049291e-05 -1.227038e-04 1.243183e-04 2.818544e-04
          2.987188e-04 3.071201e-04 3.072744e-04 2.997997e-04 2.905159e-04 2.219845e-04
          -3.473077e-04 -3.254219e-04 -3.237117e-04 -3.382415e-04 -3.468822e-04 -3.476127e-04
          -1.258116e-04 2.538359e-04 3.239845e-04 3.284841e-04 3.379796e-04 3.114403e-04
          1.695756e-04 8.215910e-05 2.732048e-05 -1.799872e-05 1.801160e-04 3.478093e-04
          3.627036e-04 3.654752e-04 3.027869e-04 8.370581e-05 5.234196e-05 4.954877e-05
          6.091902e-05 3.067721e-04 3.517854e-04 3.553330e-04 3.578106e-04 3.397067e-04
          1.639317e-04 1.034651e-05 -6.615979e-06 -5.993953e-07 1.139688e-05 1.728158e-05
          2.222096e-05 7.248272e-05 1.363752e-04 1.400958e-04 3.044630e-04 3.439071e-04
          3.436802e-04 3.507547e-04 3.508226e-04 3.429161e-04 3.342113e-04 3.095647e-04
          -7.595791e-04 -7.690509e-04 -7.831954e-04 -7.848867e-04 -7.731591e-04 -7.274553e-04
          -3.266694e-04 4.843636e-04 5.889431e-04 5.765841e-04 5.661371e-04 5.373461e-04
          3.479716e-04 2.063628e-04 1.711884e-04 1.566866e-04 4.176827e-04 7.217504e-04
          7.552646e-04 7.524777e-04 6.704945e-04 2.196023e-04 1.938826e-04 1.947596e-04
          2.194891e-04 7.194077e-04 7.833302e-04 7.759392e-04 7.574824e-04 7.019314e-04
          4.296367e-04 1.844502e-04 1.620083e-04 1.613838e-04 1.522571e-04 1.260725e-04
          1.114151e-04 1.432827e-04 2.292566e-04 4.482534e-04 5.007350e-04 5.217777e-04
          5.500651e-04 5.526697e-04 5.499168e-04 5.511820e-04 5.537064e-04 5.778058e-04
          -7.916470e-04 -8.181830e-04 -8.428554e-04 -8.368290e-04 -8.154100e-04 -7.529596e-04
          -2.948651e-04 6.579341e-04 8.169003e-04 8.561687e-04 8.472216e-04 8.097179e-04
          5.589463e-04 3.713578e-04 3.425665e-04 3.342311e-04 5.045814e-04 7.545454e-04
          7.863743e-04 7.840719e-04 7.465103e-04 3.780411e-04 3.638874e-04 3.662976e-04
          3.868245e-04 7.915614e-04 8.300591e-04 8.171057e-04 7.925711e-04 7.378047e-04
          5.442218e-04 3.613720e-04 3.433657e-04 3.401984e-04 3.209025e-04 2.751347e-04
          2.419913e-04 2.542965e-04 3.227919e-04 6.098943e-04 6.740665e-04 7.647987e-04
          8.258214e-04 8.300332e-04 8.261815e-04 8.313348e-04 8.379481e-04 8.623121e-04
          -6.849068e-04 -6.446062e-04 -6.465372e-04 -6.740573e-04 -6.866098e-04 -6.801425e-04
          -1.833289e-04 6.555485e-04 8.448478e-04 9.034144e-04 9.300992e-04 8.755943e-04
          5.850553e-04 4.069626e-04 2.923982e-04 1.870352e-04 4.697583e-04 6.989877e-04
          7.199208e-04 7.283246e-04 6.579788e-04 4.029530e-04 3.521774e-04 3.469424e-04
          3.596968e-04 6.493566e-04 7.049817e-04 7.107978e-04 7.180753e-04 6.974627e-04
          4.637025e-04 2.541508e-04 2.254273e-04 2.378305e-04 2.573977e-04 2.551911e-04
          2.500313e-04 3.443866e-04 4.492732e-04 4.236030e-04 7.664335e-04 9.128797e-04
          9.385450e-04 9.580671e-04 9.596133e-04 9.447051e-04 9.267963e-04 8.640050e-04
          -4.392364e-04 -5.228193e-04 -5.657785e-04 -5.311339e-04 -4.890808e-04 -4.096790e-04
          -1.467585e-04 6.075791e-04 7.735771e-04 8.871258e-04 8.670620e-04 8.186331e-04
          4.672926e-04 1.969055e-04 2.370422e-04 3.119225e-04 2.581220e-04 3.902535e-04
          4.183965e-04 4.113408e-04 4.527838e-04 1.887953e-04 2.067230e-04 2.143951e-04
          2.300725e-04 4.997621e-04 4.897371e-04 4.622794e-04 4.167809e-04 3.554704e-04
          3.288212e-04 2.850232e-04 2.858932e-04 2.711146e-04 2.269011e-04 1.573809e-04
          1.006819e-04 2.474184e-05 2.802534e-05 5.580519e-04 5.783639e-04 7.402074e-04
          8.417960e-04 8.337729e-04 8.236828e-04 8.429371e-04 8.664401e-04 9.195911e-04
          -4.078634e-04 -3.221530e-04 -3.049587e-04 -3.549835e-04 -3.954774e-04 -4.435223e-04
          -3.811568e-05 5.184230e-04 7.040956e-04 7.809353e-04 8.338586e-04 7.626999e-04
          4.186889e-04 2.337796e-04 6.812181e-05 -9.030539e-05 2.600862e-04 4.618291e-04
          4.732997e-04 4.888221e-04 3.921789e-04 2.173205e-04 1.390206e-04 1.282290e-04
          1.353394e-04 3.389169e-04 4.070601e-04 4.268088e-04 4.568112e-04 4.619251e-04
          2.069814e-04 -1.223103e-05 -4.546445e-05 -2.257702e-05 2.778223e-05 6.774514e-05
          8.981074e-05 2.312165e-04 3.530903e-04 1.189413e-04 6.959080e-04 8.813938e-04
          8.717626e-04 8.981929e-04 9.022770e-04 8.729800e-04 8.378415e-04 7.087088e-04
          -6.114381e-04 -6.796448e-04 -7.138799e-04 -6.876830e-04 -6.527179e-04 -5.790017e-04
          -2.865931e-04 5.055674e-04 6.240667e-04 6.628498e-04 6.351696e-04 5.926627e-04
          2.795536e-04 3.453584e-05 6.318166e-05 1.328891e-04 2.610010e-04 5.475021e-04
          5.875169e-04 5.782879e-04 5.411420e-04 3.977794e-05 3.837619e-05 4.481082e-05
          7.318048e-05 6.106160e-04 6.500940e-04 6.268324e-04 5.821915e-04 5.025556e-04
          3.017464e-04 1.116989e-04 1.014522e-04 8.878425e-05 5.266486e-05 -1.133891e-06
          -3.928718e-05 -8.647637e-05 -3.963324e-05 4.792242e-04 4.734673e-04 5.422027e-04
          6.101964e-04 5.995514e-04 5.899870e-04 6.060190e-04 6.264310e-04 6.926332e-04
          -8.904542e-04 -9.424610e-04 -9.686111e-04 -9.509004e-04 -9.206134e-04 -8.440164e-04
          -4.746372e-04 4.324391e-04 4.999315e-04 4.465815e-04 4.078852e-04 3.795700e-04
          1.509515e-04 -4.110612e-05 -2.392610e-05 3.624252e-05 3.561477e-04 8.065632e-04
          8.594349e-04 8.474651e-04 7.292614e-04 -1.717147e-05 -3.551271e-05 -3.004833e-05
          1.159203e-05 8.288060e-04 9.195117e-04 9.002289e-04 8.562601e-04 7.570809e-04
          3.734008e-04 2.880325e-05 6.082003e-06 -4.630631e-06 -3.505340e-05 -7.844403e-05
          -1.000929e-04 -1.137620e-04 -1.970709e-05 4.753574e-04 3.895444e-04 3.422318e-04
          3.769897e-04 3.648809e-04 3.566623e-04 3.700694e-04 3.881653e-04 4.763771e-04
          -9.938169e-04 -7.365233e-04 -6.555331e-04 -7.921807e-04 -9.080976e-04 -1.049721e-03
          -3.306730e-04 3.635964e-04 4.795667e-04 3.499273e-04 4.420158e-04 3.813287e-04
          2.167338e-04 2.103423e-04 -1.511808e-04 -5.275593e-04 5.221611e-04 1.093917e-03
          1.116332e-03 1.145588e-03 7.838726e-04 2.244079e-04 3.555126e-05 7.714647e-06
          3.262494e-05 7.070972e-04 9.358156e-04 1.001916e-03 1.095711e-03 1.118665e-03
          3.289359e-04 -3.290486e-04 -4.152172e-04 -3.572521e-04 -2.193394e-04 -7.409029e-05
          4.102485e-05 4.302449e-04 7.424841e-04 -1.767536e-04 6.916304e-04 6.772823e-04
          5.173164e-04 5.712042e-04 5.901973e-04 5.158900e-04 4.277849e-04 1.914269e-04
          -8.949040e-04 -1.025299e-03 -1.078261e-03 -1.020590e-03 -9.514623e-04 -8.149589e-04
          -5.307775e-04 4.266394e-04 4.667721e-04 4.159555e-04 3.407923e-04 3.309263e-04
          1.442929e-04 -5.847331e-05 6.017473e-05 2.315658e-04 3.545735e-04 7.614097e-04
          8.206253e-04 7.975497e-04 7.444391e-04 -2.792917e-05 1.664204e-06 1.591821e-05
          6.078667e-05 8.931436e-04 9.458897e-04 9.050303e-04 8.266715e-04 6.986746e-04
          4.298096e-04 1.750536e-04 1.692253e-04 1.405951e-04 6.540630e-05 -2.864211e-05
          -8.554000e-05 -2.017316e-04 -1.671997e-04 6.657572e-04 2.785361e-04 1.965908e-04
          2.783194e-04 2.495910e-04 2.352684e-04 2.718481e-04 3.179131e-04 4.969660e-04
          -9.531849e-04 -9.735190e-04 -9.901768e-04 -9.859125e-04 -9.646558e-04 -8.967129e-04
          -4.605097e-04 4.410212e-04 5.022496e-04 4.281290e-04 4.000263e-04 3.931954e-04
          3.149790e-04 2.336682e-04 2.215978e-04 2.280977e-04 5.261382e-04 8.901034e-04
          9.304655e-04 9.230331e-04 8.203640e-04 2.622705e-04 2.445384e-04 2.475070e-04
          2.785794e-04 9.012379e-04 9.783383e-04 9.677375e-04 9.417346e-04 8.712145e-04
          5.468683e-04 2.558658e-04 2.317729e-04 2.273982e-04 2.076522e-04 1.701740e-04
          1.536130e-04 1.780458e-04 2.699909e-04 5.381130e-04 4.156802e-04 3.455539e-04
          3.677670e-04 3.661310e-04 3.635769e-04 3.702554e-04 3.792590e-04 4.452321e-04
          -1.001928e-03 -9.538659e-04 -9.482156e-04 -9.769840e-04 -9.847685e-04 -9.576377e-04
          -4.197723e-04 4.564562e-04 5.307504e-04 4.407979e-04 4.416060e-04 4.389233e-04
          4.410929e-04 4.433905e-04 3.506353e-04 2.534488e-04 6.527186e-04 9.825226e-04
          1.010484e-03 1.012802e-03 8.827886e-04 4.714934e-04 4.259402e-04 4.219967e-04
          4.437844e-04 9.218149e-04 1.011759e-03 1.019907e-03 1.026696e-03 9.931065e-04
          6.422729e-04 3.353867e-04 3.002686e-04 3.109052e-04 3.248761e-04 3.209493e-04
          3.284035e-04 4.402911e-04 5.662162e-04 4.765310e-04 5.055710e-04 4.404793e-04
          4.267339e-04 4.423595e-04 4.474133e-04 4.357341e-04 4.218765e-04 4.188140e-04
          -9.528876e-04 -1.229640e-03 -1.335055e-03 -1.200925e-03 -1.053332e-03 -7.915712e-04
          -6.222470e-04 4.702593e-04 4.631641e-04 4.181142e-04 2.746375e-04 3.192611e-04
          3.283308e-04 1.808529e-04 4.944150e-04 8.609948e-04 5.118970e-04 7.316716e-04
          7.927889e-04 7.501357e-04 8.646421e-04 2.268748e-04 3.633274e-04 3.948565e-04
          4.360321e-04 1.100549e-03 1.051693e-03 9.702910e-04 8.317135e-04 6.670700e-04
          7.224844e-04 7.281560e-04 7.590003e-04 6.966158e-04 5.315813e-04 3.284730e-04
          1.947911e-04 -1.155622e-04 -2.169721e-04 1.168318e-03 1.120480e-04 -3.960450e-05
          1.422735e-04 8.711205e-05 6.431003e-05 1.460486e-04 2.454113e-04 5.993405e-04
          -9.879039e-04 -7.486177e-04 -6.714233e-04 -7.937250e-04 -8.922646e-04 -1.003621e-03
          -3.500953e-04 2.059562e-04 2.393815e-04 4.959599e-05 1.216401e-04 1.194319e-04
          2.778907e-04 4.693057e-04 1.639665e-04 -1.847926e-04 6.698206e-04 1.073567e-03
          1.080905e-03 1.106160e-03 8.113839e-04 4.995625e-04 3.539288e-04 3.300407e-04
          3.425261e-04 7.525168e-04 9.334387e-04 9.955657e-04 1.087950e-03 1.130393e-03
          5.194613e-04 1.491768e-05 -5.727641e-05 -5.776032e-06 1.114972e-04 2.312782e-04
          3.328107e-04 6.868290e-04 9.394517e-04 -5.036225e-05 4.549415e-04 3.256587e-04
          1.691450e-04 2.206379e-04 2.432856e-04 1.791692e-04 1.020619e-04 -8.072705e-05
          -3.847410e-04 -3.962438e-04 -3.994696e-04 -3.933037e-04 -3.803481e-04 -3.452084e-04
          -2.417344e-04 -2.020557e-05 -7.658938e-05 -1.765373e-04 -2.027519e-04 -1.722825e-04
          -1.794321e-05 6.460748e-05 8.956122e-05 1.124221e-04 2.144749e-04 3.446379e-04
          3.581812e-04 3.515701e-04 3.047773e-04 8.999374e-05 9.605287e-05 9.876327e-05
          1.111762e-04 3.566321e-04 3.874038e-04 3.832055e-04 3.721298e-04 3.450938e-04
          2.247581e-04 1.192758e-04 1.128580e-04 1.082084e-04 9.424721e-05 7.786695e-05
          7.634247e-05 7.630022e-05 9.927928e-05 1.720247e-04 -7.634260e-05 -2.167521e-04
          -2.274656e-04 -2.326858e-04 -2.320845e-04 -2.253715e-04 -2.169951e-04 -1.553883e-04
          2.579716e-04 2.071328e-04 1.937273e-04 2.218264e-04 2.434972e-04 2.672121e-04
          6.395426e-05 -1.831702e-04 -2.405057e-04 -2.376465e-04 -2.598893e-04 -2.406374e-04
          -1.671302e-04 -1.392907e-04 -5.776084e-05 2.720730e-05 -1.730401e-04 -2.813451e-04
          -2.859662e-04 -2.930997e-04 -2.312595e-04 -1.391585e-04 -1.009979e-04 -9.531570e-05
          -9.912730e-05 -2.117340e-04 -2.524545e-04 -2.648143e-04 -2.832408e-04 -2.885924e-04
          -1.427131e-04 -1.925169e-05 -1.104311e-06 -1.343010e-05 -4.013933e-05 -6.332524e-05
          -8.026478e-05 -1.612291e-04 -2.259896e-04 -4.982692e-05 -2.599773e-04 -2.940947e-04
          -2.744362e-04 -2.879562e-04 -2.918727e-04 -2.764358e-04 -2.581012e-04 -2.031934e-04
          1.934092e-04 3.399791e-04 3.933600e-04 3.223666e-04 2.503124e-04 1.340260e-04
          1.756945e-04 -1.653543e-04 -1.676679e-04 -1.917696e-04 -1.264600e-04 -1.359157e-04
          -6.694417e-05 5.109603e-05 -1.160307e-04 -3.152067e-04 -5.754303e-05 -9.488187e-05
          -1.191372e-04 -9.886787e-05 -1.854103e-04 4.097375e-05 -3.145661e-05 -4.730586e-05
          -6.268176e-05 -2.843186e-04 -2.404551e-04 -1.986110e-04 -1.289757e-04 -5.544143e-05
          -1.591219e-04 -2.285051e-04 -2.510472e-04 -2.189748e-04 -1.374766e-04 -4.161052e-05
          2.581243e-05 2.030685e-04 2.783420e-04 -4.404734e-04 5.884571e-06 2.617526e-05
          -7.084429e-05 -4.077617e-05 -2.762516e-05 -6.888407e-05 -1.193435e-04 -2.807410e-04
          3.058490e-04 1.879379e-04 1.487032e-04 2.103023e-04 2.641441e-04 3.357221e-04
          8.226313e-05 -8.183107e-05 -1.166742e-04 -6.289779e-05 -1.069219e-04 -8.625892e-05
          -5.614220e-05 -8.546824e-05 7.105230e-05 2.401026e-04 -1.717795e-04 -3.593280e-04
          -3.617520e-04 -3.758344e-04 -2.338719e-04 -8.907627e-05 -1.054324e-05 2.094898e-06
          -3.171278e-06 -1.885344e-04 -2.759596e-04 -3.071360e-04 -3.534294e-04 -3.766649e-04
          -8.519043e-05 1.540433e-04 1.882342e-04 1.617172e-04 9.829431e-05 2.927798e-05
          -2.418422e-05 -1.935937e-04 -3.154435e-04 1.494504e-04 -2.265098e-04 -2.188387e-04
          -1.431053e-04 -1.675451e-04 -1.770895e-04 -1.432620e-04 -1.030296e-04 8.818756e-06
          4.641631e-04 6.073630e-04 6.586040e-04 5.906747e-04 5.180185e-04 3.916204e-04
          3.499532e-04 -1.593489e-04 -1.350471e-04 -9.399469e-05 -1.667307e-05 -3.087158e-05
          1.751894e-05 1.287425e-04 -3.452554e-05 -2.374303e-04 -1.426503e-04 -3.422946e-04
          -3.813444e-04 -3.577914e-04 -3.767549e-04 1.041340e-04 4.514682e-05 2.916082e-05
          -1.078065e-07 -5.071124e-04 -5.078606e-04 -4.661304e-04 -3.911323e-04 -2.922126e-04
          -2.297811e-04 -1.564406e-04 -1.683540e-04 -1.360545e-04 -5.458527e-05 3.894269e-05
          9.783808e-05 2.568186e-04 2.907598e-04 -4.796851e-04 2.449799e-05 1.249762e-04
          4.574513e-05 7.896226e-05 9.233061e-05 5.092040e-05 -3.336917e-07 -1.868037e-04
          3.339839e-04 2.689817e-04 2.474967e-04 2.826222e-04 3.109248e-04 3.427067e-04
          1.425811e-04 -7.300713e-05 -8.719994e-05 -2.865227e-05 -4.669225e-05 -3.529074e-05
          -1.351070e-05 -2.190452e-05 6.741167e-05 1.585734e-04 -1.556470e-04 -3.503581e-04
          -3.604685e-04 -3.665235e-04 -2.535866e-04 -3.098661e-05 1.958566e-05 2.635548e-05
          1.566317e-05 -2.459144e-04 -3.176832e-04 -3.342507e-04 -3.558078e-04 -3.534515e-04
          -1.025555e-04 1.076525e-04 1.324830e-04 1.181456e-04 8.412707e-05 4.701933e-05
          1.498947e-05 -8.735689e-05 -1.778386e-04 3.704899e-05 -1.475735e-04 -1.098620e-04
          -6.252660e-05 -7.453079e-05 -7.946337e-05 -6.117998e-05 -3.972901e-05 8.708503e-06
          -1.114376e-04 -5.036096e-05 -3.171829e-05 -6.212702e-05 -8.862427e-05 -1.236134e-04
          7.690735e-06 7.229087e-05 1.015152e-04 9.249795e-05 1.189389e-04 1.137075e-04
          1.322051e-04 1.713701e-04 9.154801e-05 -3.303183e-06 1.310242e-04 1.477239e-04
          1.415460e-04 1.502505e-04 1.111107e-04 1.704928e-04 1.390001e-04 1.325271e-04
          1.281365e-04 7.716292e-05 9.965930e-05 1.158432e-04 1.430158e-04 1.680843e-04
          9.986661e-05 4.633396e-05 3.309584e-05 4.679036e-05 7.787369e-05 1.078368e-04
          1.291547e-04 2.124647e-04 2.565626e-04 -2.906602e-05 1.474177e-04 1.653989e-04
          1.358513e-04 1.513691e-04 1.573174e-04 1.402327e-04 1.193177e-04 5.539865e-05
          -3.163169e-04 -2.583848e-04 -2.429136e-04 -2.729807e-04 -2.948410e-04 -3.149803e-04
          -8.567407e-05 1.719292e-04 2.151764e-04 1.910895e-04 2.122237e-04 2.075924e-04
          2.226974e-04 2.536986e-04 1.704268e-04 7.368004e-05 2.604051e-04 3.408632e-04
          3.416331e-04 3.492056e-04 2.933393e-04 2.589898e-04 2.252626e-04 2.193450e-04
          2.201773e-04 2.749010e-04 3.102726e-04 3.245464e-04 3.471943e-04 3.601815e-04
          2.360314e-04 1.317315e-04 1.137519e-04 1.268454e-04 1.537267e-04 1.748557e-04
          1.918447e-04 2.814682e-04 3.426777e-04 9.863116e-05 2.418441e-04 2.455761e-04
          2.216141e-04 2.375324e-04 2.435303e-04 2.276558e-04 2.083125e-04 1.573367e-04
          -3.891600e-04 -4.267163e-04 -4.421461e-04 -4.252729e-04 -4.018726e-04 -3.515753e-04
          -2.213659e-04 1.351958e-04 1.337860e-04 9.016515e-05 6.234265e-05 7.159053e-05
          8.441523e-05 6.532008e-05 1.030248e-04 1.511260e-04 2.048708e-04 3.419602e-04
          3.605789e-04 3.528914e-04 3.303605e-04 8.202563e-05 9.383697e-05 9.847665e-05
          1.129845e-04 3.856111e-04 4.053529e-04 3.931805e-04 3.694686e-04 3.293658e-04
          2.330918e-04 1.427607e-04 1.392088e-04 1.304056e-04 1.052490e-04 7.216245e-05
          5.425200e-05 2.514484e-05 3.992270e-05 2.711280e-04 7.813545e-05 1.453934e-05
          3.604776e-05 2.792598e-05 2.504411e-05 3.683116e-05 5.157291e-05 1.184192e-04
          -3.721934e-04 -3.675075e-04 -3.649060e-04 -3.694076e-04 -3.683635e-04 -3.540865e-04
          -2.307246e-04 1.424469e-05 -1.438319e-05 -9.654979e-05 -1.116168e-04 -1.064600e-04
          -8.500133e-05 -7.973428e-05 -8.700124e-05 -8.467118e-05 1.291541e-04 3.421130e-04
          3.614361e-04 3.574978e-04 2.701637e-04 -6.104238e-05 -7.881207e-05 -7.869355e-05
          -6.065721e-05 3.108373e-04 3.688648e-04 3.688971e-04 3.618676e-04 3.288798e-04
          1.117289e-04 -7.525876e-05 -8.965905e-05 -8.965102e-05 -8.966417e-05 -8.771917e-05
          -7.756144e-05 -5.220213e-05 3.031140e-06 7.019573e-05 -9.866426e-08 -9.952812e-05
          -1.208061e-04 -1.243292e-04 -1.244146e-04 -1.245329e-04 -1.236540e-04 -9.214464e-05
          -1.146455e-04 2.561038e-05 7.761415e-05 6.825843e-06 -6.048966e-05 -1.599911e-04
          -1.975688e-05 -1.280593e-04 -1.448393e-04 -2.261112e-04 -1.759093e-04 -1.875487e-04
          -1.457911e-04 -5.701569e-05 -2.224703e-04 -4.060516e-04 2.575964e-05 1.826476e-04
          1.775648e-04 1.935244e-04 3.548160e-05 -5.341488e-05 -1.392693e-04 -1.541631e-04
          -1.523420e-04 -2.494485e-05 6.791190e-05 1.068206e-04 1.651888e-04 2.040419e-04
          -8.731231e-05 -3.197291e-04 -3.536694e-04 -3.233075e-04 -2.459830e-04 -1.529284e-04
          -8.083483e-05 1.060552e-04 2.264614e-04 -3.704652e-04 2.680855e-05 -2.149826e-05
          -1.287115e-04 -1.038360e-04 -9.217067e-05 -1.314852e-04 -1.783636e-04 -3.076077e-04
          5.096658e-04 3.947764e-04 3.592108e-04 4.192291e-04 4.680978e-04 5.232809e-04
          1.767561e-04 -1.663174e-04 -2.080659e-04 -1.335422e-04 -1.711443e-04 -1.559428e-04
          -1.497570e-04 -1.885545e-04 -3.159593e-05 1.387599e-04 -3.128126e-04 -5.509768e-04
          -5.594217e-04 -5.719251e-04 -4.174631e-04 -1.998072e-04 -1.215178e-04 -1.095805e-04
          -1.191614e-04 -3.884903e-04 -4.855286e-04 -5.148646e-04 -5.573541e-04 -5.702525e-04
          -2.354396e-04 4.350527e-05 8.128445e-05 5.593685e-05 -2.457834e-06 -6.153245e-05
          -1.102631e-04 -2.848020e-04 -4.197357e-04 1.580975e-05 -3.008122e-04 -2.690065e-04
          -1.980699e-04 -2.231268e-04 -2.326809e-04 -2.007112e-04 -1.625383e-04 -6.670782e-05
          7.950633e-04 1.050724e-03 1.143638e-03 1.021401e-03 8.920790e-04 6.672632e-04
          5.953817e-04 -3.048946e-04 -2.717838e-04 -2.129785e-04 -7.774396e-05 -1.015791e-04
          -7.250828e-06 1.949917e-04 -9.507759e-05 -4.543191e-04 -2.555111e-04 -5.822832e-04
          -6.497877e-04 -6.082995e-04 -6.555932e-04 1.537215e-04 4.649788e-05 1.808588e-05
          -3.164961e-05 -8.822175e-04 -8.748889e-04 -8.003686e-04 -6.677874e-04 -4.955871e-04
          -4.150690e-04 -3.104070e-04 -3.335822e-04 -2.758091e-04 -1.304436e-04 3.786809e-05
          1.454802e-04 4.313292e-04 4.986165e-04 -8.661188e-04 1.906122e-05 1.790674e-04
          3.262904e-05 9.062004e-05 1.148077e-04 4.086675e-05 -5.028985e-05 -3.774360e-04
          6.625716e-04 6.661611e-04 6.697581e-04 6.728047e-04 6.662058e-04 6.335570e-04
          3.766624e-04 -1.652449e-04 -1.651346e-04 -6.837695e-05 -4.535852e-05 -3.815784e-05
          2.583878e-05 8.582532e-05 9.980189e-05 9.103910e-05 -2.476739e-04 -6.112334e-04
          -6.475568e-04 -6.408144e-04 -5.088158e-04 6.060975e-05 9.006410e-05 8.909575e-05
          5.796585e-05 -5.756477e-04 -6.669324e-04 -6.630369e-04 -6.456950e-04 -5.834431e-04
          -2.298811e-04 7.833323e-05 1.018160e-04 1.033254e-04 1.083156e-04 1.151839e-04
          1.085747e-04 7.619688e-05 -1.643057e-05 -2.085368e-04 -1.501492e-04 -4.389161e-05
          -2.977347e-05 -2.458948e-05 -2.215764e-05 -2.389136e-05 -2.740447e-05 -7.631087e-05
          4.870999e-05 6.476549e-05 7.126628e-05 6.438942e-05 5.696494e-05 4.460145e-05
          3.085007e-05 -4.865735e-05 -5.956794e-05 -6.714752e-05 -6.087390e-05 -5.532101e-05
          -9.383015e-06 2.867048e-05 1.525673e-05 -5.571947e-06 -4.287911e-06 -3.681710e-05
          -4.270425e-05 -4.039380e-05 -4.063752e-05 2.855689e-05 2.521543e-05 2.355222e-05
          1.959180e-05 -5.249689e-05 -5.464445e-05 -4.978717e-05 -4.106727e-05 -2.819568e-05
          -1.219694e-05 4.140621e-06 3.572874e-06 6.730674e-06 1.482541e-05 2.448569e-05
          3.137567e-05 4.802402e-05 4.796400e-05 -5.261854e-05 -3.624140e-05 -4.464840e-05
          -5.630301e-05 -5.308067e-05 -5.094463e-05 -5.496008e-05 -5.996972e-05 -7.500521e-05
          -5.213455e-04 -5.273334e-04 -5.313832e-04 -5.310606e-04 -5.228693e-04 -4.913687e-04
          -2.925528e-04 1.238473e-04 1.169262e-04 3.714896e-05 1.667480e-05 1.986758e-05
          1.823302e-05 8.686546e-07 -1.891228e-06 7.796342e-06 2.313807e-04 4.800616e-04
          5.050066e-04 4.995990e-04 4.122896e-04 2.256459e-05 7.470491e-06 8.768950e-06
          3.036445e-05 4.660561e-04 5.265972e-04 5.226783e-04 5.088648e-04 4.646152e-04
          2.271654e-04 1.915290e-05 3.285992e-06 9.803292e-07 -6.510152e-06 -1.754498e-05
          -1.635044e-05 2.968377e-06 6.398548e-05 2.015851e-04 1.007612e-04 7.154598e-06
          -1.155343e-07 -4.152094e-06 -5.251069e-06 -2.260416e-06 2.298650e-06 4.773670e-05
          -7.378546e-04 -7.564505e-04 -7.622314e-04 -7.549206e-04 -7.364970e-04 -6.810608e-04
          -4.607030e-04 3.147226e-05 -3.910108e-05 -2.020596e-04 -2.451730e-04 -2.159143e-04
          -8.581930e-05 -3.197605e-05 -5.062725e-06 3.426019e-05 3.234287e-04 6.638858e-04
          6.985951e-04 6.870567e-04 5.639205e-04 9.095234e-06 1.134555e-06 4.903437e-06
          3.607455e-05 6.587422e-04 7.419215e-04 7.343483e-04 7.109442e-04 6.457889e-04
          3.233463e-04 4.195219e-05 2.334370e-05 1.639843e-05 -2.728993e-06 -2.367580e-05
          -2.120258e-05 -1.071647e-05 6.109258e-05 2.663760e-04 -4.366701e-05 -2.596655e-04
          -2.800999e-04 -2.906588e-04 -2.918962e-04 -2.826359e-04 -2.701069e-04 -1.721358e-04