<?xml version="1.0"?>
<VTKFile type="RectilinearGrid" version="0.1" byte_order="LittleEndian">
  <RectilinearGrid WholeExtent="0 47 0 47 0 47">
    <Piece Extent="0 47 0 47 0 47">
      <PointData Scalars="concentration">
        <DataArray type="Float32" Name="concentration" NumberOfComponents="1" format="ascii">
          1.496722e-05 4.690122e-05 5.873710e-05 4.368068e-05 2.919241e-05 6.964916e-06
          2.124947e-05 -4.817527e-05 -5.770104e-05 -7.427748e-05 -6.232164e-05 -5.865304e-05
          -1.067146e-05 3.524435e-05 1.930695e-06 -4.081971e-05 1.359960e-05 3.783713e-06
          -1.721723e-06 2.052799e-06 -1.680411e-05 3.580222e-05 2.224254e-05 1.911325e-05
          1.561372e-05 -3.475177e-05 -2.546825e-05 -1.623985e-05 -1.122959e-06 1.494781e-05
          -6.152077e-06 -2.003467e-05 -2.489472e-05 -1.820519e-05 -1.686998e-06 1.751789e-05
          3.186032e-05 7.063722e-05 8.600709e-05 -7.917841e-05 -1.760211e-05 -3.041685e-05
          -5.314695e-05 -4.657117e-05 -4.346242e-05 -5.182281e-05 -6.216427e-05 -9.145054e-05
          -1.331063e-04 -1.019831e-04 -9.616761e-05 -1.098131e-04 -1.170823e-04 -1.199324e-04
          1.681273e-05 1.375240e-04 1.706688e-04 1.765119e-04 1.914211e-04 2.054521e-04
          3.135056e-04 3.964682e-04 3.570047e-04 2.920394e-04 2.547536e-04 1.576287e-04
          1.450095e-04 1.507667e-04 1.803922e-04 3.980410e-04 3.986699e-04 3.961059e-04
          3.839225e-04 1.569763e-04 1.364091e-04 1.442097e-04 1.616970e-04 1.915001e-04
          2.689760e-04 3.354233e-04 3.332779e-04 3.402412e-04 3.496905e-04 3.483690e-04
          3.457681e-04 3.871444e-04 3.865720e-04 1.666606e-04 1.673257e-04 1.867200e-04
          1.890942e-04 2.028149e-04 2.084661e-04 2.013874e-04 1.915179e-04 1.610277e-04
          -2.282396e-04 -6.845242e-06 6.314745e-05 -4.523583e-05 -1.407988e-04 -2.734704e-04
          1.115035e-04 1.522929e-04 2.304585e-04 1.998719e-04 2.969964e-04 2.924843e-04
          4.483025e-04 6.508636e-04 3.755973e-04 3.504983e-05 4.186149e-04 3.688078e-04
          3.351683e-04 3.671273e-04 2.619129e-04 6.456954e-04 5.450215e-04 5.220288e-04
          4.968264e-04 1.268360e-04 1.819813e-04 2.419474e-04 3.450865e-04 4.544378e-04
          3.126422e-04 2.112661e-04 1.709531e-04 2.204099e-04 3.318264e-04 4.411643e-04
          5.178416e-04 8.078142e-04 9.366174e-04 -1.688389e-04 4.123135e-04 4.672065e-04
          3.576214e-04 4.140698e-04 4.371939e-04 3.763321e-04 3.009727e-04 6.825249e-05
          -1.156579e-04 -2.840177e-04 -3.468909e-04 -2.611443e-04 -1.738399e-04 -3.388913e-05
          -1.112899e-04 1.725247e-04 1.662882e-04 2.067552e-04 1.343657e-04 1.708786e-04
          2.446108e-04 2.106526e-04 4.162229e-04 6.352555e-04 1.590003e-04 1.618608e-05
          2.622734e-05 4.630982e-06 1.774830e-04 2.217608e-04 3.301196e-04 3.490727e-04
          3.505996e-04 2.747480e-04 1.741826e-04 1.267303e-04 5.408483e-05 -2.006123e-07
          3.058661e-04 5.459624e-04 5.828303e-04 5.452575e-04 4.458422e-04 3.233277e-04
          2.344903e-04 1.855897e-05 -1.151585e-04 5.898994e-04 -4.116872e-05 -6.184273e-05
          6.193332e-05 3.209445e-05 2.013407e-05 6.993558e-05 1.290231e-04 3.141232e-04
          -6.292156e-05 9.273691e-05 1.469700e-04 6.981925e-05 -3.143186e-06 -1.115580e-04
          6.135075e-05 -5.380273e-05 -3.879542e-05 -8.665530e-05 -2.267615e-05 -3.462442e-05
          2.204105e-05 1.304061e-04 -5.700419e-05 -2.749314e-04 9.222737e-05 1.532135e-04
          1.377302e-04 1.579987e-04 3.432401e-05 1.276050e-04 4.320456e-05 2.665181e-05
          1.831980e-05 -5.161997e-05 1.825595e-05 6.129144e-05 1.305491e-04 1.918377e-04
          -1.306090e-05 -1.709697e-04 -2.028170e-04 -1.685367e-04 -8.459162e-05 9.824416e-06
          7.907235e-05 2.813770e-04 3.901990e-04 -3.265694e-04 1.271818e-04 1.291575e-04
          2.885752e-05 6.168618e-05 7.555541e-05 3.208870e-05 -2.091159e-05 -1.795862e-04
          5.436350e-05 2.121121e-04 2.718890e-04 1.928225e-04 1.131542e-04 -1.225770e-05
          6.165158e-05 -2.092972e-04 -2.302450e-04 -2.985210e-04 -2.366763e-04 -2.575095e-04
          -2.514656e-04 -1.738936e-04 -3.579480e-04 -5.590200e-04 -1.076415e-04 3.132060e-05
          2.205404e-05 4.078771e-05 -1.262885e-04 -1.772617e-04 -2.747251e-04 -2.918853e-04
          -2.926599e-04 -2.077082e-04 -1.110480e-04 -6.647209e-05 1.233074e-06 5.087934e-05
          -2.427262e-04 -4.730250e-04 -5.077089e-04 -4.733580e-04 -3.827339e-04 -2.702315e-04
          -1.859827e-04 1.630121e-05 1.405316e-04 -5.346735e-04 -2.622804e-05 -5.259978e-05
          -1.751617e-04 -1.481038e-04 -1.362889e-04 -1.811835e-04 -2.350325e-04 -3.936161e-04
          1.262703e-04 -9.391527e-05 -1.652164e-04 -5.544024e-05 4.499289e-05 1.909397e-04
          -1.423752e-04 -1.205515e-04 -2.064437e-04 -1.937608e-04 -2.942944e-04 -2.701590e-04
          -3.122576e-04 -4.436082e-04 -1.633608e-04 1.682706e-04 -2.660813e-04 -2.689361e-04
          -2.403182e-04 -2.725081e-04 -1.443980e-04 -4.315801e-04 -3.190708e-04 -2.953128e-04
          -2.751349e-04 -5.320253e-06 -7.581918e-05 -1.357444e-04 -2.367033e-04 -3.373482e-04
          -1.409450e-04 6.073271e-06 4.834458e-05 -1.522217e-06 -1.180771e-04 -2.387114e-04
          -3.223041e-04 -6.105339e-04 -7.513000e-04 2.963037e-04 -3.969415e-04 -4.806918e-04
          -3.661308e-04 -4.194585e-04 -4.405298e-04 -3.777458e-04 -3.011166e-04 -5.667557e-05
          -8.338217e-05 2.403029e-04 3.527863e-04 1.917253e-04 3.871314e-05 -1.905467e-04
          1.608272e-04 -9.136094e-05 -4.592866e-05 -1.266037e-04 1.020900e-05 -2.155685e-05
          5.844792e-05 2.613908e-04 -1.324379e-04 -5.880661e-04 1.629332e-04 2.765844e-04
          2.433184e-04 2.864249e-04 3.579231e-05 2.510785e-04 7.430213e-05 3.959316e-05
          2.099044e-05 -1.499965e-04 -8.576460e-06 8.093679e-05 2.256189e-04 3.554545e-04
          -5.675680e-05 -3.734544e-04 -4.388613e-04 -3.671444e-04 -1.910684e-04 6.637180e-06
          1.497904e-04 5.695201e-04 7.937222e-04 -6.943704e-04 2.944883e-04 3.257431e-04
          1.212247e-04 1.901853e-04 2.186507e-04 1.271814e-04 1.617089e-05 -3.230195e-04
          -8.151529e-05 -1.103900e-04 -1.228859e-04 -1.072617e-04 -8.901845e-05 -5.638207e-05
          -2.834938e-05 7.807648e-05 8.313965e-05 8.921355e-05 7.625905e-05 9.155420e-05
          1.567494e-04 1.837404e-04 2.198471e-04 2.499683e-04 1.286618e-04 6.510017e-05
          6.341232e-05 6.002759e-05 1.088228e-04 1.880752e-04 2.140738e-04 2.177504e-04
          2.142473e-04 1.254106e-04 9.592986e-05 8.744401e-05 7.625822e-05 7.313083e-05
          1.678943e-04 2.439858e-04 2.518139e-04 2.451917e-04 2.248317e-04 1.955248e-04
          1.741388e-04 1.377187e-04 1.064874e-04 1.957352e-04 3.537553e-05 2.909556e-05
          5.759211e-05 5.506232e-05 5.417360e-05 6.365485e-05 7.443457e-05 1.099367e-04
          -1.407665e-04 -1.105279e-04 -1.044042e-04 -1.177991e-04 -1.251519e-04 -1.280692e-04
          4.014146e-06 1.234921e-04 1.514105e-04 1.513221e-04 1.646750e-04 1.781751e-04
          2.816786e-04 3.608092e-04 3.228092e-04 2.614070e-04 2.409843e-04 1.624756e-04
          1.516887e-04 1.569658e-04 1.785804e-04 3.633476e-04 3.624421e-04 3.599284e-04
          3.495135e-04 1.584594e-04 1.431066e-04 1.506209e-04 1.670974e-04 1.934603e-04
          2.521865e-04 3.026440e-04 2.997683e-04 3.064244e-04 3.158824e-04 3.156799e-04
          3.145630e-04 3.556574e-04 3.586541e-04 1.523825e-04 1.511944e-04 1.625670e-04
          1.624355e-04 1.750867e-04 1.804580e-04 1.735580e-04 1.641511e-04 1.365710e-04
          -1.445424e-04 -1.087649e-04 -1.007609e-04 -1.167345e-04 -1.263430e-04 -1.322863e-04
          7.566511e-06 1.227954e-04 1.506987e-04 1.485337e-04 1.640567e-04 1.788240e-04
          2.942881e-04 3.837191e-04 3.396237e-04 2.696648e-04 2.544383e-04 1.698621e-04
          1.577565e-04 1.637998e-04 1.843311e-04 3.864146e-04 3.838530e-04 3.807853e-04
          3.693148e-04 1.608750e-04 1.456609e-04 1.547441e-04 1.740719e-04 2.039216e-04
          2.637394e-04 3.155977e-04 3.120316e-04 3.198998e-04 3.318981e-04 3.341538e-04
          3.348689e-04 3.829144e-04 3.878104e-04 1.494312e-04 1.556727e-04 1.659671e-04
          1.628844e-04 1.769310e-04 1.831105e-04 1.747609e-04 1.636022e-04 1.308301e-04
          -1.896778e-06 4.361003e-07 2.089249e-06 2.064954e-06 2.460464e-06 3.962337e-06
          -4.998452e-06 -4.007144e-05 -5.812865e-05 -7.405023e-05 -7.605259e-05 -6.501772e-05
          9.728160e-07 4.400497e-05 4.827809e-05 4.629617e-05 2.719069e-05 1.667300e-06
          -1.265998e-06 -1.635181e-06 4.326728e-06 4.740468e-05 5.216776e-05 5.230664e-05
          4.997197e-05 5.552610e-06 2.955920e-07 1.299108e-06 3.580147e-06 8.532638e-06
          3.054191e-05 4.985061e-05 5.120723e-05 5.118428e-05 5.049783e-05 4.973089e-05
          5.027819e-05 5.120986e-05 4.472077e-05 5.870285e-06 -4.937674e-05 -7.522284e-05
          -7.945611e-05 -7.904389e-05 -7.785214e-05 -7.754353e-05 -7.721486e-05 -7.191645e-05
          1.339428e-04 1.194819e-04 1.200972e-04 1.277557e-04 1.305937e-04 1.284658e-04
          -4.684287e-06 -1.932476e-04 -2.503227e-04 -2.801693e-04 -2.919274e-04 -2.864331e-04
          -2.664969e-04 -2.596680e-04 -2.282029e-04 -1.874255e-04 -1.799616e-04 -1.485986e-04
          -1.447789e-04 -1.490561e-04 -1.663363e-04 -2.566349e-04 -2.528369e-04 -2.512846e-04
          -2.462023e-04 -1.513815e-04 -1.419946e-04 -1.445269e-04 -1.515938e-04 -1.635110e-04
          -1.917329e-04 -2.139620e-04 -2.107511e-04 -2.148864e-04 -2.194600e-04 -2.142176e-04
          -2.076945e-04 -2.322696e-04 -2.400881e-04 -1.596898e-04 -2.236579e-04 -2.783309e-04
          -2.920889e-04 -3.011815e-04 -3.034129e-04 -2.991774e-04 -2.931945e-04 -2.686035e-04
          1.156194e-04 1.688051e-04 1.919455e-04 1.657725e-04 1.369662e-04 8.774278e-05
          4.191284e-05 -1.772308e-04 -2.124276e-04 -2.478419e-04 -2.289027e-04 -2.320331e-04
          -2.061020e-04 -1.631269e-04 -2.169303e-04 -2.754996e-04 -1.266333e-04 -8.681163e-05
          -9.119287e-05 -8.577592e-05 -1.468917e-04 -1.641010e-04 -1.962530e-04 -2.020404e-04
          -2.023749e-04 -1.744460e-04 -1.406692e-04 -1.246383e-04 -1.009370e-04 -8.311673e-05
          -1.804508e-04 -2.548471e-04 -2.647763e-04 -2.536329e-04 -2.216410e-04 -1.770942e-04
          -1.431235e-04 -7.977545e-05 -4.313040e-05 -2.789022e-04 -1.225452e-04 -1.541191e-04
          -2.056175e-04 -1.990749e-04 -1.951624e-04 -2.103379e-04 -2.279440e-04 -2.785779e-04
          5.361902e-05 -1.633680e-05 -3.983609e-05 -4.129637e-06 2.968762e-05 7.982906e-05
          -1.896360e-05 -1.816642e-05 -4.115700e-05 -2.953224e-05 -6.011866e-05 -4.497543e-05
          -1.289559e-05 -2.422979e-05 6.675843e-05 1.659119e-04 -3.154454e-05 -9.372453e-05
          -9.031587e-05 -9.981100e-05 -3.330303e-05 -2.101695e-05 2.306510e-05 3.081113e-05
          3.164868e-05 5.225480e-06 -3.461112e-05 -5.345780e-05 -8.298997e-05 -1.049882e-04
          2.026007e-05 1.200588e-04 1.367825e-04 1.209736e-04 8.175392e-05 3.792344e-05
          6.342128e-06 -8.770853e-05 -1.467957e-04 1.453132e-04 -1.093202e-04 -1.291162e-04
          -8.613235e-05 -1.008661e-04 -1.062050e-04 -8.596188e-05 -6.125311e-05 1.500469e-05
          -2.525462e-05 7.405431e-05 1.069210e-04 5.821578e-05 1.358514e-05 -5.167206e-05
          7.835681e-05 2.073200e-05 4.773145e-05 3.688190e-05 8.133599e-05 7.784797e-05
          1.409737e-04 2.292676e-04 1.081333e-04 -4.083718e-05 1.235041e-04 9.105074e-05
          7.476848e-05 8.911672e-05 4.246394e-05 2.247390e-04 1.792389e-04 1.687702e-04
          1.567900e-04 -2.172986e-05 1.743772e-06 2.920857e-05 7.626466e-05 1.271027e-04
          7.098248e-05 3.282853e-05 1.607614e-05 3.828037e-05 8.981118e-05 1.431794e-04
          1.802744e-04 3.072563e-04 3.612257e-04 -1.375915e-04 1.384353e-04 1.646131e-04
          1.119189e-04 1.361465e-04 1.463373e-04 1.184685e-04 8.456076e-05 -2.305574e-05
          3.862106e-05 -1.845017e-05 -3.844410e-05 -9.352217e-06 1.852148e-05 6.026404e-05
          -7.529348e-06 1.444615e-05 5.497469e-06 2.346040e-05 7.343539e-08 1.080284e-05
          2.815781e-05 1.348879e-05 8.534479e-05 1.630724e-04 -8.567817e-06 -6.938195e-05
          -6.729746e-05 -7.462672e-05 -1.422031e-05 1.486868e-05 5.139298e-05 5.770889e-05
          5.730215e-05 1.472209e-05 -2.136898e-05 -3.688678e-05 -6.068333e-05 -7.708832e-05
          3.679082e-05 1.276070e-04 1.415264e-04 1.288442e-04 9.664929e-05 5.915362e-05
          3.137896e-05 -4.508295e-05 -9.468828e-05 1.409498e-04 -5.659011e-05 -6.016643e-05
          -2.112334e-05 -3.221716e-05 -3.648330e-05 -2.010033e-05 -2.143117e-07 5.890019e-05
          7.341288e-05 2.789474e-05 1.484901e-05 3.788742e-05 5.749111e-05 8.399690e-05
          -2.207435e-05 -8.351119e-05 -1.173760e-04 -1.228437e-04 -1.449355e-04 -1.379394e-04
          -1.343971e-04 -1.532184e-04 -9.078651e-05 -1.679906e-05 -1.039725e-04 -1.037694e-04
          -9.797604e-05 -1.053028e-04 -8.325507e-05 -1.502686e-04 -1.271498e-04 -1.221630e-04
          -1.177234e-04 -5.372047e-05 -6.639297e-05 -7.827425e-05 -9.886554e-05 -1.200235e-04
          -8.305655e-05 -5.497813e-05 -4.555116e-05 -5.609839e-05 -7.936556e-05 -1.006321e-04
          -1.146542e-04 -1.766276e-04 -2.074976e-04 7.300956e-06 -1.448720e-04 -1.762484e-04
          -1.585176e-04 -1.711262e-04 -1.755917e-04 -1.625518e-04 -1.463130e-04 -9.365604e-05
          4.358678e-05 3.061857e-04 4.016846e-04 2.706642e-04 1.419400e-04 -5.680764e-05
          1.376100e-04 -2.114800e-04 -2.077186e-04 -2.899539e-04 -1.815144e-04 -2.119438e-04
          -1.740848e-04 -2.584576e-05 -3.388941e-04 -6.924545e-04 -3.164282e-05 1.092910e-04
          8.626439e-05 1.196783e-04 -1.128848e-04 -3.458684e-05 -1.857880e-04 -2.142002e-04
          -2.243333e-04 -2.599008e-04 -1.277545e-04 -5.414297e-05 6.198227e-05 1.592445e-04
          -2.314207e-04 -5.339704e-04 -5.880421e-04 -5.301997e-04 -3.831556e-04 -2.093915e-04
          -8.201722e-05 2.551271e-04 4.445929e-04 -7.314241e-04 9.912279e-05 9.874823e-05
          -8.437554e-05 -3.352672e-05 -1.179531e-05 -8.661273e-05 -1.765328e-04 -4.495838e-04
          1.339605e-04 7.709841e-06 -3.074555e-05 3.224648e-05 8.761918e-05 1.649937e-04
          -7.654431e-05 -1.475512e-04 -2.168973e-04 -2.201254e-04 -2.794419e-04 -2.661699e-04
          -2.932649e-04 -3.699469e-04 -2.047029e-04 -6.121863e-06 -2.346433e-04 -2.177290e-04
          -1.998694e-04 -2.192506e-04 -1.587948e-04 -3.628424e-04 -3.012087e-04 -2.876482e-04
          -2.741078e-04 -7.713524e-05 -1.101669e-04 -1.439321e-04 -2.021067e-04 -2.630434e-04
          -1.730803e-04 -1.069513e-04 -8.275156e-05 -1.116165e-04 -1.765250e-04 -2.390832e-04
          -2.813491e-04 -4.488935e-04 -5.275950e-04 8.339167e-05 -3.091652e-04 -3.740154e-04
          -3.175423e-04 -3.507682e-04 -3.633594e-04 -3.275773e-04 -2.833576e-04 -1.411958e-04
          1.773977e-04 1.571889e-04 1.585466e-04 1.677510e-04 1.689088e-04 1.604082e-04
          -2.542175e-05 -2.637884e-04 -3.358595e-04 -3.745329e-04 -3.902919e-04 -3.964215e-04
          -4.501154e-04 -4.936242e-04 -4.560735e-04 -3.946474e-04 -3.158040e-04 -2.013215e-04
          -1.891748e-04 -1.953740e-04 -2.474285e-04 -4.911327e-04 -4.970333e-04 -4.953273e-04
          -4.819695e-04 -2.232835e-04 -1.907328e-04 -1.946883e-04 -2.073619e-04 -2.354145e-04
          -3.461509e-04 -4.380078e-04 -4.374899e-04 -4.429640e-04 -4.460373e-04 -4.322458e-04
          -4.182967e-04 -4.489194e-04 -4.419691e-04 -2.767269e-04 -2.955612e-04 -3.614989e-04
          -3.848698e-04 -3.995457e-04 -4.043721e-04 -3.995696e-04 -3.921484e-04 -3.617332e-04
          2.051417e-04 2.502940e-04 2.762714e-04 2.522440e-04 2.198868e-04 1.581946e-04
          5.725572e-06 -3.368002e-04 -4.107185e-04 -4.713764e-04 -4.603071e-04 -4.787562e-04
          -5.509732e-04 -5.753797e-04 -6.166270e-04 -6.394802e-04 -3.690430e-04 -1.922734e-04
          -1.834648e-04 -1.815387e-04 -3.039215e-04 -5.757867e-04 -6.236408e-04 -6.292709e-04
          -6.158138e-04 -3.151115e-04 -2.415057e-04 -2.270872e-04 -2.117739e-04 -2.198964e-04
          -4.566028e-04 -6.477403e-04 -6.618992e-04 -6.529703e-04 -6.178064e-04 -5.566459e-04
          -5.078085e-04 -4.539607e-04 -3.937531e-04 -5.017797e-04 -2.883017e-04 -3.549536e-04
          -4.278511e-04 -4.311924e-04 -4.312705e-04 -4.456091e-04 -4.608975e-04 -4.994344e-04
          2.103593e-04 -6.997515e-05 -1.589674e-04 -2.009018e-05 1.050268e-04 2.836504e-04
          -1.741144e-04 -1.929543e-04 -3.071476e-04 -2.904951e-04 -4.181676e-04 -3.948484e-04
          -4.910032e-04 -6.846197e-04 -3.288990e-04 9.891900e-05 -4.208078e-04 -3.922969e-04
          -3.529835e-04 -3.941908e-04 -2.471621e-04 -6.713613e-04 -5.341115e-04 -5.043715e-04
          -4.755289e-04 -7.008471e-05 -1.496785e-04 -2.257115e-04 -3.548942e-04 -4.882169e-04
          -2.730524e-04 -1.150360e-04 -6.232342e-05 -1.257459e-04 -2.712785e-04 -4.178015e-04
          -5.191537e-04 -8.860994e-04 -1.058365e-03 2.997587e-04 -5.396661e-04 -6.442170e-04
          -5.044085e-04 -5.744937e-04 -6.020068e-04 -5.232472e-04 -4.261564e-04 -1.182576e-04
          -5.137858e-05 1.851896e-04 2.686098e-04 1.503370e-04 3.704271e-05 -1.339225e-04
          1.078349e-04 -9.364307e-05 -6.650368e-05 -1.309702e-04 -3.197385e-05 -5.882858e-05
          -2.216298e-05 1.120470e-04 -1.760564e-04 -5.048283e-04 7.580421e-05 1.903114e-04
          1.688208e-04 1.999224e-04 1.951891e-06 1.045832e-04 -2.894233e-05 -5.461826e-05
          -6.520379e-05 -1.310975e-04 -1.828769e-05 4.720423e-05 1.521028e-04 2.418875e-04
          -9.270652e-05 -3.522623e-04 -4.014540e-04 -3.490980e-04 -2.188849e-04 -7.006223e-05
          3.828891e-05 3.460507e-04 5.168931e-04 -5.516059e-04 1.896436e-04 2.062161e-04
          5.154142e-05 1.002491e-04 1.206742e-04 5.327248e-05 -2.798329e-05 -2.753048e-04
          -9.748456e-05 -1.095644e-04 -1.175052e-04 -1.112599e-04 -1.017076e-04 -8.218749e-05
          -1.137621e-05 1.338927e-04 1.648800e-04 1.854470e-04 1.830613e-04 1.868832e-04
          1.995730e-04 2.012498e-04 2.089062e-04 2.108956e-04 1.393541e-04 9.403945e-05
          9.218397e-05 9.198253e-05 1.268622e-04 2.014503e-04 2.142893e-04 2.157114e-04
          2.121176e-04 1.300495e-04 1.096746e-04 1.054101e-04 1.012537e-04 1.029389e-04
          1.665355e-04 2.168509e-04 2.200476e-04 2.177588e-04 2.077187e-04 1.886033e-04
          1.731320e-04 1.610110e-04 1.468751e-04 1.770208e-04 1.234102e-04 1.494671e-04
          1.730997e-04 1.750193e-04 1.753036e-04 1.789733e-04 1.828885e-04 1.923264e-04
          -6.574023e-05 -1.105155e-04 -1.313058e-04 -1.091758e-04 -8.472821e-05 -4.390544e-05
          3.041030e-06 1.960775e-04 2.454859e-04 2.981369e-04 2.865742e-04 2.857224e-04
          2.466401e-04 2.010627e-04 2.423877e-04 2.853587e-04 1.210729e-04 4.836554e-05
          4.884036e-05 4.531332e-05 1.158102e-04 1.976594e-04 2.272782e-04 2.320364e-04
          2.286298e-04 1.301998e-04 8.986168e-05 7.639216e-05 5.801859e-05 4.902780e-05
          1.729862e-04 2.704679e-04 2.807772e-04 2.718418e-04 2.449065e-04 2.048464e-04
          1.719689e-04 1.172100e-04 7.854636e-05 2.627941e-04 1.580225e-04 2.163524e-04
          2.682882e-04 2.647702e-04 2.617672e-04 2.739448e-04 2.880027e-04 3.215345e-04
          -4.683129e-05 1.080177e-04 1.582299e-04 8.039430e-05 7.545820e-06 -1.012427e-04
          1.191175e-04 9.126222e-05 1.625209e-04 1.679022e-04 2.415782e-04 2.137598e-04
          1.818141e-04 2.355026e-04 3.391751e-05 -1.975559e-04 1.269929e-04 1.491011e-04
          1.311588e-04 1.539442e-04 5.654165e-05 2.231190e-04 1.381360e-04 1.211483e-04
          1.087467e-04 -4.498332e-05 1.021198e-05 5.238814e-05 1.225410e-04 1.896479e-04
          3.173410e-05 -8.861959e-05 -1.193258e-04 -8.389287e-05 7.075823e-07 8.994174e-05
          1.505158e-04 3.530819e-04 4.574370e-04 -2.533766e-04 2.962935e-04 3.777641e-04
          2.974543e-04 3.342715e-04 3.478593e-04 3.027991e-04 2.478233e-04 6.811295e-05
          5.751812e-05 -5.202735e-05 -9.085685e-05 -3.683052e-05 1.368029e-05 8.750257e-05
          -2.998377e-05 6.477080e-05 6.745368e-05 1.144275e-04 7.201160e-05 7.335052e-05
          -6.454015e-06 -1.079737e-04 1.971266e-05 1.717961e-04 -8.201745e-05 -1.190797e-04
          -1.072537e-04 -1.212565e-04 -3.439376e-05 -1.087813e-04 -5.231310e-05 -4.081394e-05
          -3.452049e-05 2.274087e-05 -2.542914e-05 -5.580848e-05 -1.049199e-04 -1.494651e-04
          -9.541121e-06 9.740087e-05 1.193104e-04 9.550119e-05 3.762649e-05 -2.782785e-05
          -7.717125e-05 -2.192200e-04 -2.933919e-04 2.245849e-04 -5.455033e-05 -3.520188e-05
          3.841674e-05 1.560656e-05 5.211649e-06 3.530454e-05 7.175822e-05 1.774480e-04
          2.502652e-05 1.754322e-04 2.279792e-04 1.520231e-04 7.772971e-05 -3.751232e-05
          1.036949e-04 -3.660970e-05 -1.020664e-06 -1.862647e-05 4.907516e-05 1.963731e-05
          -2.664313e-05 1.567791e-05 -1.735338e-04 -3.831101e-04 -9.681325e-06 6.820053e-05
          5.535472e-05 7.583755e-05 -5.017390e-05 5.196326e-06 -8.467106e-05 -1.013300e-04
          -1.076978e-04 -1.420641e-04 -6.928853e-05 -2.760457e-05 3.874614e-05 9.483512e-05
          -1.219375e-04 -2.905270e-04 -3.220601e-04 -2.881679e-04 -2.026987e-04 -1.045078e-04
          -3.521628e-05 1.596322e-04 2.706292e-04 -3.879417e-04 1.575046e-04 2.032418e-04
          1.082946e-04 1.393539e-04 1.511787e-04 1.071942e-04 5.413913e-05 -1.147387e-04
          2.295544e-05 -3.550807e-05 -5.617055e-05 -2.727164e-05 -1.316394e-07 3.981870e-05
          -2.116306e-05 3.248728e-05 3.217019e-05 5.463648e-05 3.147072e-05 3.301106e-05
          -5.001355e-06 -5.653040e-05 1.207172e-05 9.354693e-05 -3.944867e-05 -5.662996e-05
          -5.008216e-05 -5.769444e-05 -1.250539e-05 -5.633090e-05 -2.611143e-05 -1.993408e-05
          -1.633016e-05 1.900729e-05 -5.936180e-06 -2.217970e-05 -4.849841e-05 -7.274848e-05
          -7.155903e-07 5.408282e-05 6.563437e-05 5.282950e-05 2.178279e-05 -1.332195e-05
          -3.957143e-05 -1.151500e-04 -1.542298e-04 1.223417e-04 -3.239949e-05 -2.574804e-05
          1.302934e-05 7.800130e-07 -4.764092e-06 1.140752e-05 3.097727e-05 8.865117e-05
          2.787074e-05 9.527049e-05 1.199799e-04 8.638886e-05 5.295972e-05 4.274102e-07
          4.162810e-05 -6.237924e-05 -6.205957e-05 -8.163965e-05 -5.343619e-05 -6.231842e-05
          -5.842220e-05 -2.383893e-05 -1.039650e-04 -1.937320e-04 -2.418342e-05 1.184289e-05
          5.908109e-06 1.440649e-05 -4.569867e-05 -2.671271e-05 -6.602689e-05 -7.336112e-05
          -7.588034e-05 -8.427825e-05 -5.013257e-05 -3.110269e-05 -1.272278e-06 2.355652e-05
          -7.685975e-05 -1.544846e-04 -1.682216e-04 -1.533665e-04 -1.151929e-04 -6.950263e-05
          -3.626322e-05 4.960158e-05 9.789516e-05 -2.020090e-04 1.823922e-05 2.004059e-05
          -2.758529e-05 -1.479960e-05 -9.376660e-06 -2.865425e-05 -5.190588e-05 -1.229444e-04
          1.083406e-04 1.681591e-04 1.941033e-04 1.642020e-04 1.311575e-04 7.490484e-05
          2.975830e-05 -1.953500e-04 -2.335620e-04 -2.760434e-04 -2.552559e-04 -2.630341e-04
          -2.601563e-04 -2.296118e-04 -2.921161e-04 -3.558715e-04 -1.568388e-04 -7.879150e-05
          -8.059826e-05 -7.477361e-05 -1.564055e-04 -2.302966e-04 -2.708710e-04 -2.774778e-04
          -2.748834e-04 -1.842176e-04 -1.372638e-04 -1.194469e-04 -9.433148e-05 -7.967179e-05
          -2.224761e-04 -3.344678e-04 -3.476707e-04 -3.350624e-04 -2.982473e-04 -2.462728e-04
          -2.061788e-04 -1.330344e-04 -8.360873e-05 -3.261110e-04 -1.313667e-04 -1.678344e-04
          -2.278922e-04 -2.213556e-04 -2.176253e-04 -2.347236e-04 -2.548242e-04 -3.111400e-04
          9.513809e-06 -2.886517e-05 -4.141670e-05 -2.150032e-05 -2.326049e-06 2.694398e-05
          -2.802733e-05 -3.039510e-05 -5.355169e-05 -5.919122e-05 -7.831774e-05 -6.558376e-05
          -2.381463e-05 -1.544269e-05 3.755411e-05 9.408263e-05 -7.401532e-06 -3.458963e-05
          -3.229862e-05 -3.804860e-05 -5.691147e-06 -1.106161e-05 1.397449e-05 1.838382e-05
          1.957096e-05 1.955785e-05 -2.702864e-08 -1.030161e-05 -2.687802e-05 -4.003749e-05
          2.079632e-05 6.923737e-05 7.805025e-05 6.911989e-05 4.678280e-05 2.240598e-05
          6.067277e-06 -4.539085e-05 -7.702939e-05 8.101008e-05 -8.650994e-05 -1.150376e-04
          -9.464419e-05 -1.033005e-04 -1.060098e-04 -9.423881e-05 -8.018519e-05 -3.274113e-05
          -1.599867e-04 -1.566288e-04 -1.614498e-04 -1.615083e-04 -1.547987e-04 -1.349186e-04
          -3.696620e-06 1.803114e-04 2.178629e-04 2.337166e-04 2.372890e-04 2.543745e-04
          3.565401e-04 4.224465e-04 4.144627e-04 3.848061e-04 2.789290e-04 1.684453e-04
          1.584147e-04 1.609661e-04 2.157832e-04 4.250733e-04 4.417709e-04 4.421263e-04
          4.310122e-04 2.083613e-04 1.734973e-04 1.733294e-04 1.784533e-04 1.980328e-04
          3.159699e-04 4.134023e-04 4.165728e-04 4.176029e-04 4.110458e-04 3.899208e-04
          3.730437e-04 3.800212e-04 3.606064e-04 2.650369e-04 1.781812e-04 2.005929e-04
          2.239996e-04 2.327522e-04 2.364601e-04 2.372542e-04 2.368792e-04 2.349604e-04
          -1.937484e-04 -5.575114e-05 -1.468889e-05 -8.220556e-05 -1.394162e-04 -2.154022e-04
          7.461360e-05 1.783539e-04 2.490100e-04 2.439999e-04 3.068866e-04 3.058726e-04
          4.135415e-04 5.466100e-04 3.705691e-04 1.481592e-04 3.512240e-04 2.852605e-04
          2.613525e-04 2.825077e-04 2.366681e-04 5.425527e-04 4.845389e-04 4.702733e-04
          4.510065e-04 1.485562e-04 1.708029e-04 2.076705e-04 2.729988e-04 3.471551e-04
          2.980061e-04 2.669458e-04 2.427374e-04 2.739807e-04 3.411339e-04 4.015761e-04
          4.427131e-04 6.250255e-04 6.996220e-04 -9.952432e-06 3.435724e-04 3.986667e-04
          3.412906e-04 3.795694e-04 3.949775e-04 3.572049e-04 3.100439e-04 1.615486e-04
          -2.625617e-05 -1.445468e-04 -1.880166e-04 -1.285868e-04 -6.954696e-05 2.249636e-05
          -5.897278e-05 1.013906e-04 9.904337e-05 1.354839e-04 8.646573e-05 1.044607e-04
          1.123197e-04 6.159930e-05 2.040912e-04 3.612926e-04 4.291111e-05 -4.167113e-05
          -3.333390e-05 -4.821358e-05 6.546126e-05 6.621676e-05 1.378179e-04 1.507929e-04
          1.534084e-04 1.309457e-04 6.532916e-05 3.220952e-05 -1.938683e-05 -5.964992e-05
          1.379489e-04 2.926437e-04 3.180297e-04 2.919486e-04 2.244612e-04 1.435033e-04
          8.424729e-05 -6.838493e-05 -1.587840e-04 3.550003e-04 -4.165644e-05 -4.387420e-05
          4.060366e-05 1.851660e-05 9.271414e-06 4.341273e-05 8.421687e-05 2.085087e-04
          -4.088774e-05 2.118848e-04 2.991823e-04 1.727748e-04 5.239412e-05 -1.291895e-04
          1.438861e-04 -5.195294e-05 -5.077844e-06 -5.516737e-05 5.424759e-05 2.355114e-05
          5.231629e-05 1.902792e-04 -1.208755e-04 -4.781558e-04 1.071845e-04 1.950415e-04
          1.689488e-04 2.033390e-04 9.268469e-06 1.791482e-04 3.920136e-05 1.179568e-05
          -2.818069e-06 -1.398742e-04 -3.018586e-05 3.970899e-05 1.526618e-04 2.545918e-04
          -6.588120e-05 -3.118303e-04 -3.629982e-04 -3.065648e-04 -1.680294e-04 -1.252178e-05
          9.908882e-05 4.267825e-04 6.025803e-04 -5.520187e-04 2.568798e-04 3.009268e-04
          1.437611e-04 1.979586e-04 2.199185e-04 1.478436e-04 6.038475e-05 -2.108190e-04
          7.519199e-05 7.872504e-05 8.295773e-05 8.119032e-05 7.680860e-05 6.613389e-05
          1.954195e-06 -1.122795e-04 -1.412992e-04 -1.598235e-04 -1.612002e-04 -1.619222e-04
          -1.640133e-04 -1.633033e-04 -1.607216e-04 -1.530392e-04 -1.105663e-04 -7.686725e-05
          -7.492911e-05 -7.574957e-05 -9.914389e-05 -1.624623e-04 -1.687362e-04 -1.691825e-04
          -1.658652e-04 -9.711077e-05 -8.348430e-05 -8.169519e-05 -8.116978e-05 -8.492660e-05
          -1.278375e-04 -1.617241e-04 -1.629991e-04 -1.626329e-04 -1.583229e-04 -1.470131e-04
          -1.372163e-04 -1.356673e-04 -1.290973e-04 -1.271301e-04 -1.133242e-04 -1.402270e-04
          -1.561268e-04 -1.590734e-04 -1.597404e-04 -1.606525e-04 -1.616054e-04 -1.608575e-04
          5.167227e-05 7.294425e-05 8.142873e-05 7.118443e-05 5.997180e-05 4.055779e-05
          2.668020e-05 -5.520411e-05 -6.347479e-05 -7.123889e-05 -6.241171e-05 -6.428886e-05
          -5.725451e-05 -4.200730e-05 -6.432848e-05 -8.941328e-05 -4.246852e-05 -3.851040e-05
          -4.128216e-05 -3.890953e-05 -5.715239e-05 -4.336657e-05 -5.532255e-05 -5.756756e-05
          -5.883121e-05 -7.040496e-05 -6.071854e-05 -5.426134e-05 -4.459475e-05 -3.569290e-05
          -6.150913e-05 -8.022183e-05 -8.374823e-05 -7.910309e-05 -6.661472e-05 -5.006479e-05
          -3.795716e-05 -1.333629e-05 -1.186749e-06 -9.904291e-05 -3.153310e-05 -3.528931e-05
          -5.315958e-05 -4.989719e-05 -4.830977e-05 -5.416061e-05 -6.149804e-05 -8.380580e-05
          -1.441737e-04 -1.378922e-04 -1.429441e-04 -1.443886e-04 -1.389433e-04 -1.215665e-04
          2.426771e-05 2.236729e-04 2.793939e-04 3.132669e-04 3.216562e-04 3.344323e-04
          4.161194e-04 4.712245e-04 4.557094e-04 4.169137e-04 2.929769e-04 1.592081e-04
          1.470638e-04 1.507223e-04 2.163073e-04 4.704284e-04 4.865554e-04 4.865254e-04
          4.728782e-04 2.007515e-04 1.593645e-04 1.599511e-04 1.672545e-04 1.914985e-04
          3.327459e-04 4.494216e-04 4.530415e-04 4.551112e-04 4.502730e-04 4.289175e-04
          4.099197e-04 4.200543e-04 3.983078e-04 2.835107e-04 2.323558e-04 2.819319e-04
          3.105360e-04 3.214522e-04 3.254645e-04 3.250157e-04 3.229059e-04 3.105794e-04
          -1.801171e-04 -1.942636e-04 -2.063615e-04 -1.979915e-04 -1.828156e-04 -1.495653e-04
          -1.063517e-05 2.379669e-04 2.905404e-04 3.230497e-04 3.214125e-04 3.351057e-04
          4.040613e-04 4.402596e-04 4.482634e-04 4.388731e-04 2.935051e-04 1.795943e-04
          1.721493e-04 1.728037e-04 2.438471e-04 4.417181e-04 4.664487e-04 4.685560e-04
          4.584426e-04 2.442345e-04 2.010994e-04 1.956964e-04 1.928317e-04 2.045001e-04
          3.448820e-04 4.582991e-04 4.643807e-04 4.618077e-04 4.459450e-04 4.123301e-04