<?xml version="1.0"?>
<VTKFile type="RectilinearGrid" version="0.1" byte_order="LittleEndian">
  <RectilinearGrid WholeExtent="0 47 0 47 0 47">
    <Piece Extent="0 47 0 47 0 47">
      <PointData Scalars="concentration">
        <DataArray type="Float32" Name="concentration" NumberOfComponents="1" format="ascii">
          1.120371e-04 1.424200e-04 1.528636e-04 1.400445e-04 1.271907e-04 1.050742e-04
          9.146694e-05 -4.692499e-05 -5.106887e-05 -4.648525e-05 -3.105101e-05 -2.097241e-05
          6.480556e-05 1.373814e-04 1.093753e-04 6.329192e-05 2.213707e-05 -8.347046e-05
          -9.811400e-05 -9.279754e-05 -7.235593e-05 1.339174e-04 1.317592e-04 1.285621e-04
          1.170692e-04 -1.027951e-04 -1.200107e-04 -1.108493e-04 -9.251090e-05 -6.108626e-05
          1.552657e-05 8.548199e-05 8.664146e-05 9.323283e-05 1.074617e-04 1.218045e-04
          1.302752e-04 1.601575e-04 1.509150e-04 -5.963022e-05 -1.855019e-05 -8.929234e-06
          -2.279037e-05 -1.433720e-05 -9.853573e-06 -1.750704e-05 -2.739648e-05 -6.289711e-05
          1.304957e-04 1.591114e-04 1.689443e-04 1.572415e-04 1.450284e-04 1.233087e-04
          1.003174e-04 -5.157208e-05 -5.618392e-05 -4.871661e-05 -3.349263e-05 -2.310046e-05
          6.346515e-05 1.361739e-04 1.109163e-04 6.744004e-05 1.346561e-05 -1.017959e-04
          -1.171337e-04 -1.119080e-04 -8.680492e-05 1.321465e-04 1.317159e-04 1.286722e-04
          1.165572e-04 -1.178775e-04 -1.381164e-04 -1.294205e-04 -1.114886e-04 -7.925330e-05
          8.455722e-06 8.791286e-05 9.005561e-05 9.626675e-05 1.096222e-04 1.230469e-04
          1.305657e-04 1.571036e-04 1.442100e-04 -6.214668e-05 -2.508648e-05 -1.302164e-05
          -2.542232e-05 -1.732753e-05 -1.293936e-05 -2.009320e-05 -2.939180e-05 -6.418141e-05
          7.307321e-05 2.919611e-04 3.674109e-04 2.603651e-04 1.575224e-04 -4.896440e-08
          1.948820e-04 -7.830544e-05 -4.526324e-05 -7.728574e-05 1.986185e-05 5.646848e-06
          1.049936e-04 2.751935e-04 1.412679e-05 -2.985669e-04 1.031615e-04 6.991348e-05
          3.666795e-05 6.756908e-05 -5.895685e-05 2.634338e-04 1.558839e-04 1.322161e-04
          1.103467e-04 -2.001781e-04 -1.338621e-04 -7.275258e-05 2.961596e-05 1.357681e-04
          -3.303292e-05 -1.522925e-04 -1.897192e-04 -1.410433e-04 -2.325814e-05 1.071136e-04
          1.987982e-04 4.737669e-04 5.975550e-04 -4.688956e-04 1.814988e-04 2.258594e-04
          9.508618e-05 1.438480e-04 1.645958e-04 1.030953e-04 2.799414e-05 -2.101729e-04
          1.098833e-04 -6.089825e-05 -1.206827e-04 -3.352437e-05 4.913769e-05 1.719897e-04
          -3.859940e-05 2.364172e-05 -8.751337e-06 3.812594e-05 -3.312173e-05 -3.753508e-06
          2.879982e-05 -2.843626e-05 1.871189e-04 4.245408e-04 -5.717461e-05 -2.054759e-04
          -1.966230e-04 -2.185883e-04 -5.253399e-05 -2.327801e-05 8.211594e-05 1.005907e-04
          1.029670e-04 3.763751e-05 -6.031598e-05 -1.071343e-04 -1.799774e-04 -2.339448e-04
          7.161118e-05 3.147132e-04 3.546334e-04 3.164713e-04 2.210722e-04 1.118531e-04
          3.172634e-05 -1.964021e-04 -3.377740e-04 3.901859e-04 -1.889844e-04 -2.074575e-04
          -9.527116e-05 -1.299394e-04 -1.434821e-04 -9.403552e-05 -3.470436e-05 1.443654e-04
          1.142271e-05 1.646816e-04 2.167217e-04 1.418067e-04 7.078297e-05 -3.646390e-05
          1.222446e-04 -3.015005e-05 -2.836367e-06 -2.680069e-05 4.073636e-05 3.180069e-05
          1.067897e-04 2.287552e-04 4.470252e-05 -1.765361e-04 1.073021e-04 8.756251e-05
          6.473956e-05 8.639562e-05 -1.894624e-06 2.216100e-04 1.467993e-04 1.302594e-04
          1.150976e-04 -9.891927e-05 -5.241781e-05 -9.807676e-06 6.158345e-05 1.352852e-04
          1.487655e-05 -7.108421e-05 -9.789244e-05 -6.384794e-05 1.785073e-05 1.067804e-04
          1.694917e-04 3.637475e-04 4.520484e-04 -2.950230e-04 1.511544e-04 1.812035e-04
          9.158724e-05 1.263465e-04 1.410558e-04 9.823421e-05 4.575931e-05 -1.194666e-04
          -1.217854e-05 1.434515e-04 1.961569e-04 1.198496e-04 4.796527e-05 -5.980573e-05
          1.122040e-04 -2.124279e-05 7.723028e-06 -1.898393e-05 4.905423e-05 3.958788e-05
          1.129486e-04 2.344811e-04 4.657096e-05 -1.784922e-04 1.202995e-04 1.113226e-04
          8.922868e-05 1.111046e-04 1.762259e-05 2.279193e-04 1.509924e-04 1.341970e-04
          1.196888e-04 -7.898034e-05 -2.908902e-05 1.413157e-05 8.613252e-05 1.591302e-04
          2.616061e-05 -7.053383e-05 -9.858548e-05 -6.400661e-05 1.884624e-05 1.087886e-04
          1.725110e-04 3.711672e-04 4.639118e-04 -2.895772e-04 1.629465e-04 1.912694e-04
          1.001755e-04 1.354947e-04 1.503797e-04 1.068749e-04 5.360880e-05 -1.130127e-04
          8.328290e-05 -1.387137e-04 -2.165454e-04 -1.041508e-04 3.367175e-06 1.648326e-04
          -8.343575e-05 5.208638e-05 1.341903e-05 6.826896e-05 -2.567379e-05 9.268070e-06
          3.168092e-05 -5.696510e-05 2.198642e-04 5.284963e-04 -5.904524e-05 -2.116605e-04
          -1.962329e-04 -2.252145e-04 -2.406110e-05 -4.874113e-05 8.388248e-05 1.078906e-04
          1.142755e-04 9.868910e-05 -1.845576e-05 -7.948878e-05 -1.758842e-04 -2.527229e-04
          1.050229e-04 3.866513e-04 4.358089e-04 3.862517e-04 2.625624e-04 1.209792e-04
          1.795526e-05 -2.745156e-04 -4.475277e-04 5.205611e-04 -2.225557e-04 -2.513089e-04
          -1.067724e-04 -1.521739e-04 -1.702327e-04 -1.062124e-04 -2.919554e-05 2.060553e-04
          2.992138e-05 3.518437e-04 4.626417e-04 3.037688e-04 1.521380e-04 -7.822371e-05
          2.428234e-04 -8.202436e-05 -2.598576e-05 -7.872663e-05 6.291145e-05 3.516398e-05
          1.404547e-04 3.626546e-04 -2.705058e-05 -4.867125e-04 1.627686e-04 1.749639e-04
          1.320750e-04 1.770081e-04 -3.136106e-05 3.467679e-04 1.812116e-04 1.463506e-04
          1.192023e-04 -2.319462e-04 -1.188287e-04 -2.930561e-05 1.186714e-04 2.646316e-04
          -4.358524e-05 -2.711962e-04 -3.303068e-04 -2.586002e-04 -8.439358e-05 1.086444e-04
          2.454013e-04 6.556369e-04 8.541452e-04 -6.781611e-04 3.047630e-04 3.680740e-04
          1.741195e-04 2.452580e-04 2.748581e-04 1.838933e-04 7.308749e-05 -2.753080e-04
          1.223250e-04 9.180396e-05 8.083141e-05 9.812003e-05 1.138037e-04 1.344346e-04
          6.083590e-05 -1.678632e-05 -2.459327e-05 -1.447796e-06 -1.102737e-05 2.579028e-06
          5.970927e-05 8.539494e-05 1.296635e-04 1.685383e-04 -8.621222e-06 -1.298489e-04
          -1.376374e-04 -1.402154e-04 -7.406081e-05 8.328510e-05 1.131693e-04 1.164010e-04
          1.088318e-04 -6.993275e-05 -1.124342e-04 -1.202383e-04 -1.294283e-04 -1.233993e-04
          2.558339e-05 1.504865e-04 1.634619e-04 1.566316e-04 1.381496e-04 1.153703e-04
          9.670948e-05 4.838665e-05 -1.097869e-06 7.405989e-05 -5.832050e-05 -4.868268e-05
          -2.305518e-05 -2.737838e-05 -2.856257e-05 -1.916057e-05 -8.356804e-06 1.833791e-05
          1.088394e-04 1.378502e-04 1.475149e-04 1.348737e-04 1.218988e-04 9.932098e-05
          9.161632e-05 -2.673440e-05 -2.241964e-05 -1.087511e-05 5.349281e-06 1.026598e-05
          6.559987e-05 1.181767e-04 8.830537e-05 4.335558e-05 1.191625e-05 -8.053715e-05
          -9.361982e-05 -8.815030e-05 -7.082859e-05 1.133441e-04 1.090256e-04 1.057584e-04
          9.542142e-05 -1.013678e-04 -1.158163e-04 -1.072178e-04 -9.009372e-05 -6.142228e-05
          4.006002e-06 6.399253e-05 6.445173e-05 7.096264e-05 8.542215e-05 9.986222e-05
          1.079251e-04 1.373640e-04 1.314237e-04 -5.971442e-05 5.597799e-06 2.665438e-05
          1.491006e-05 2.316966e-05 2.697784e-05 1.926474e-05 9.411521e-06 -2.812742e-05
          8.714743e-05 1.226193e-04 1.345134e-04 1.181546e-04 1.017038e-04 7.434007e-05
          8.280284e-05 -1.812883e-05 -9.702241e-06 -3.145613e-07 1.849820e-05 1.961547e-05
          5.764427e-05 1.017016e-04 6.170487e-05 7.975549e-06 1.220588e-05 -5.651025e-05
          -6.809714e-05 -6.188633e-05 -5.752182e-05 9.674891e-05 8.597372e-05 8.193653e-05
          7.301717e-05 -8.992928e-05 -9.593587e-05 -8.569498e-05 -6.654808e-05 -3.879586e-05
          -2.841798e-06 3.247411e-05 3.024096e-05 3.828197e-05 5.681366e-05 7.610446e-05
          8.786732e-05 1.275022e-04 1.318641e-04 -7.508414e-05 2.437776e-05 4.747201e-05
          3.101263e-05 4.036586e-05 4.434528e-05 3.455602e-05 2.231459e-05 -2.219422e-05
          6.023478e-05 6.407766e-05 6.503049e-05 6.391781e-05 6.243472e-05 5.851297e-05
          4.598976e-05 -8.180128e-07 3.631538e-06 1.591799e-05 2.029097e-05 2.299486e-05
          4.344122e-05 6.046611e-05 5.741218e-05 4.875121e-05 3.593222e-06 -5.130165e-05
          -5.715175e-05 -5.552721e-05 -3.613170e-05 5.767990e-05 6.155748e-05 6.096117e-05
          5.592340e-05 -4.675841e-05 -6.006760e-05 -5.872215e-05 -5.473688e-05 -4.381228e-05
          7.699043e-06 5.253615e-05 5.508912e-05 5.611896e-05 5.758699e-05 5.796217e-05
          5.662502e-05 5.753920e-05 4.649716e-05 -1.864615e-06 4.310264e-06 1.948384e-05
          2.168682e-05 2.398270e-05 2.487268e-05 2.394860e-05 2.255525e-05 1.323803e-05
          4.181435e-05 3.059924e-05 2.653600e-05 3.256381e-05 3.822593e-05 4.562410e-05
          2.317372e-05 3.454246e-06 4.139023e-06 1.525388e-05 1.222726e-05 1.587758e-05
          2.879003e-05 3.320371e-05 4.801444e-05 6.146972e-05 -1.558067e-06 -4.412839e-05
          -4.669280e-05 -4.744240e-05 -2.345514e-05 3.190425e-05 4.226910e-05 4.339136e-05
          4.069481e-05 -2.258717e-05 -3.773518e-05 -4.063663e-05 -4.407089e-05 -4.213344e-05
          1.084051e-05 5.511355e-05 5.967161e-05 5.732463e-05 5.064513e-05 4.233599e-05
          3.524912e-05 1.802070e-05 9.311598e-07 3.053047e-05 -9.962948e-06 -1.962079e-06
          8.207121e-06 6.923523e-06 6.306939e-06 9.622197e-06 1.342871e-05 2.193961e-05
          1.656573e-05 7.329135e-05 9.313117e-05 6.481907e-05 3.764089e-05 -4.249055e-06
          4.779690e-05 -1.654589e-05 -5.651545e-06 -1.269078e-05 1.275301e-05 6.388083e-06
          1.621588e-05 5.012500e-05 -1.926976e-05 -9.996979e-05 1.648469e-05 2.016726e-05
          1.281018e-05 2.084533e-05 -1.681054e-05 4.656029e-05 1.657169e-05 1.036731e-05
          5.704402e-06 -5.318626e-05 -3.252653e-05 -1.670271e-05 9.390532e-06 3.490517e-05
          -2.133039e-05 -6.295564e-05 -7.338391e-05 -6.060472e-05 -2.951313e-05 5.525906e-06
          3.010223e-05 1.022342e-04 1.378195e-04 -1.299147e-04 5.325696e-05 6.786291e-05
          3.335995e-05 4.587771e-05 5.087216e-05 3.462309e-05 1.492964e-05 -4.792681e-05
          3.349816e-05 -3.319637e-05 -5.562211e-05 -2.278105e-05 7.909628e-06 5.297343e-05
          -3.103674e-05 3.201950e-06 -9.072235e-06 6.772123e-06 -2.146668e-05 -1.660356e-05
          -4.308237e-05 -9.111669e-05 -9.923681e-06 8.599339e-05 -5.919718e-05 -7.363568e-05
          -6.595530e-05 -7.496010e-05 -2.812789e-05 -8.942854e-05 -5.472969e-05 -4.761479e-05
          -4.293575e-05 1.013627e-05 -1.582765e-05 -3.416868e-05 -6.423065e-05 -9.244165e-05
          -1.756459e-05 3.944533e-05 5.262879e-05 3.794395e-05 2.374303e-06 -3.613938e-05
          -6.399532e-05 -1.507548e-04 -1.950432e-04 1.180299e-04 -7.540554e-05 -8.279054e-05
          -4.289615e-05 -5.767570e-05 -6.391087e-05 -4.532856e-05 -2.254964e-05 4.682950e-05
          -4.732547e-06 9.738209e-05 1.336239e-04 8.190379e-05 3.186658e-05 -4.457040e-05
          5.473773e-05 -3.625848e-05 -1.936891e-05 -4.070360e-05 3.380913e-06 -1.314224e-05
          -2.581788e-05 1.430679e-05 -1.125385e-04 -2.539601e-04 6.518047e-06 6.576232e-05
          5.752611e-05 7.113403e-05 -1.800065e-05 9.222763e-06 -5.125502e-05 -6.242397e-05
          -6.621728e-05 -7.723813e-05 -2.572016e-05 2.575233e-06 4.745012e-05 8.466215e-05
          -6.974326e-05 -1.902006e-04 -2.119863e-04 -1.890545e-04 -1.317590e-04 -6.545260e-05
          -1.769510e-05 1.152883e-04 1.919675e-04 -2.579196e-04 9.113392e-05 1.087088e-04
          4.195505e-05 6.280683e-05 7.108334e-05 4.140925e-05 5.873918e-06 -1.045736e-04
          2.275228e-05 -3.276034e-05 -5.132929e-05 -2.402074e-05 1.342136e-06 3.880265e-05
          -3.069717e-05 -1.358359e-07 -1.156559e-05 -4.050433e-07 -2.430215e-05 -2.042904e-05
          -4.406685e-05 -8.520166e-05 -1.770081e-05 6.274437e-05 -5.153040e-05 -5.690189e-05
          -4.991439e-05 -5.752069e-05 -2.144116e-05 -8.343517e-05 -5.522412e-05 -4.938248e-05
          -4.486253e-05 1.142584e-05 -8.300573e-06 -2.351748e-05 -4.880429e-05 -7.333603e-05
          -1.794340e-05 2.372437e-05 3.427958e-05 2.204104e-05 -7.425590e-06 -3.905816e-05
          -6.173438e-05 -1.335128e-04 -1.687710e-04 9.497384e-05 -6.575341e-05 -7.440183e-05
          -4.206717e-05 -5.462185e-05 -5.986931e-05 -4.441970e-05 -2.538428e-05 3.302455e-05
          2.317753e-05 -2.184733e-05 -3.769788e-05 -1.510461e-05 6.214854e-06 3.794195e-05
          -1.127679e-05 1.857273e-05 1.494227e-05 3.043317e-05 1.229659e-05 1.736881e-05
          9.939582e-06 -1.519964e-05 3.921504e-05 1.010506e-04 -1.742875e-05 -4.804891e-05
          -4.489147e-05 -5.039816e-05 -9.431132e-06 -1.452904e-05 1.165279e-05 1.623451e-05
          1.756337e-05 1.400803e-05 -9.627041e-06 -2.190489e-05 -4.147917e-05 -5.699365e-05
          1.520941e-05 7.215528e-05 8.195554e-05 7.211411e-05 4.746707e-05 1.922167e-05
          -1.775073e-06 -6.078862e-05 -9.518488e-05 1.030696e-04 -3.426434e-05 -3.328634e-05
          -3.175768e-06 -1.215240e-05 -1.602595e-05 -3.292412e-06 1.217732e-05 5.749541e-05
          -3.403323e-05 2.291046e-04 3.195491e-04 1.884309e-04 6.360413e-05 -1.245781e-04
          1.648438e-04 -3.814378e-05 1.564329e-05 -3.003093e-05 8.513781e-05 5.516717e-05
          9.715298e-05 2.492967e-04 -7.506274e-05 -4.503718e-04 1.330295e-04 1.974289e-04
          1.677872e-04 2.042428e-04 1.384187e-05 2.368969e-04 9.448778e-05 6.571322e-05
          4.806555e-05 -1.449377e-04 -3.830448e-05 3.460272e-05 1.533099e-04 2.637394e-04
          -4.203927e-05 -2.745804e-04 -3.265478e-04 -2.676564e-04 -1.240407e-04 3.561380e-05
          1.493183e-04 4.896623e-04 6.667770e-04 -5.520464e-04 2.837511e-04 3.374711e-04
          1.774350e-04 2.349993e-04 2.582473e-04 1.833009e-04 9.240133e-05 -1.922742e-04
          4.615491e-05 -7.934570e-05 -1.234370e-04 -6.039893e-05 -3.132114e-07 8.969017e-05
          -4.514632e-05 4.455492e-05 2.949319e-05 6.588246e-05 1.391422e-05 2.975958e-05
          1.967309e-05 -4.467673e-05 1.088091e-04 2.824111e-04 -4.071438e-05 -1.179269e-04
          -1.082857e-04 -1.242938e-04 -1.343528e-05 -4.123703e-05 3.164472e-05 4.491888e-05
          4.925274e-05 5.493379e-05 -8.953311e-06 -4.345679e-05 -9.833788e-05 -1.431548e-04
          5.027106e-05 2.019009e-04 2.289334e-04 2.011902e-04 1.320290e-04 5.284843e-05
          -5.243874e-06 -1.694637e-04 -2.641103e-04 2.914846e-04 -1.061381e-04 -1.130829e-04
          -3.047128e-05 -5.592969e-05 -6.659659e-05 -3.079139e-05 1.243749e-05 1.423961e-04
          3.856148e-05 2.159903e-05 1.500379e-05 2.366456e-05 3.206389e-05 4.358526e-05
          2.517745e-05 2.835451e-05 3.654847e-05 5.579731e-05 5.176245e-05 5.363172e-05
          5.274977e-05 4.586895e-05 6.524578e-05 8.441347e-05 4.777645e-06 -4.278188e-05
          -4.501132e-05 -4.604752e-05 -1.488314e-05 4.368872e-05 5.691043e-05 5.851625e-05
          5.574622e-05 -1.237095e-05 -3.143699e-05 -3.601936e-05 -4.202446e-05 -4.190844e-05
          2.248883e-05 7.547150e-05 8.105638e-05 7.754896e-05 6.800036e-05 5.533458e-05
          4.452922e-05 2.058207e-05 -2.967741e-07 5.650165e-05 1.167237e-05 2.957613e-05
          4.614212e-05 4.437740e-05 4.302994e-05 4.783298e-05 5.329484e-05 6.498681e-05
          3.379858e-05 8.411511e-05 1.008128e-04 7.567503e-05 5.195975e-05 1.465963e-05
          6.843644e-05 1.877023e-05 4.173650e-05 5.060116e-05 7.633901e-05 6.907525e-05
          7.129599e-05 9.833713e-05 3.438117e-05 -4.210398e-05 3.105260e-05 3.788389e-06
          -5.609296e-06 2.636104e-06 -1.633575e-05 9.258075e-05 6.849058e-05 6.287792e-05
          5.585583e-05 -5.459844e-05 -4.536377e-05 -3.142641e-05 -7.209705e-06 2.043845e-05
          2.961016e-06 -6.865508e-06 -1.466238e-05 -3.155136e-06 2.436109e-05 5.311018e-05
          7.173827e-05 1.348551e-04 1.601766e-04 -9.064715e-05 8.552421e-05 1.193725e-04
          9.492699e-05 1.078146e-04 1.121725e-04 9.772070e-05 7.972729e-05 1.793990e-05
          1.009621e-04 -1.744754e-04 -2.704850e-04 -1.328804e-04 -1.740071e-06 1.938941e-04
          -1.093453e-04 8.512683e-05 4.955857e-05 1.263662e-04 1.183015e-05 4.262394e-05
          -9.428244e-07 -1.568278e-04 1.798244e-04 5.640217e-04 -1.188859e-04 -2.609241e-04
          -2.370028e-04 -2.728397e-04 -4.103154e-05 -1.492129e-04 6.643785e-06 3.628850e-05
          4.805455e-05 1.115299e-04 -2.101229e-05 -9.713202e-05 -2.185584e-04 -3.216848e-04
          7.519072e-05 3.839426e-04 4.421884e-04 3.810687e-04 2.303600e-04 5.931068e-05
          -6.566911e-05 -4.254195e-04 -6.270614e-04 6.120449e-04 -2.442720e-04 -2.623246e-04
          -8.395753e-05 -1.408784e-04 -1.649906e-04 -8.663842e-05 7.805710e-06 2.938283e-04
          8.980775e-06 2.489782e-04 3.315223e-04 2.118837e-04 9.770678e-05 -7.613126e-05
          1.751024e-04 -3.443668e-05 1.886677e-05 -1.318412e-05 9.398057e-05 6.485845e-05
          9.562070e-05 2.304407e-04 -6.538511e-05 -4.085153e-04 1.043586e-04 1.434285e-04
          1.145790e-04 1.482726e-04 -1.735553e-05 2.169219e-04 8.801977e-05 6.196244e-05
          4.406095e-05 -1.667775e-04 -7.475786e-05 -8.417423e-06 1.006888e-04 2.045523e-04
          -5.424310e-05 -2.493476e-04 -2.953032e-04 -2.415944e-04 -1.101433e-04 3.577265e-05
          1.387423e-04 4.471444e-04 6.038102e-04 -5.139532e-04 2.619556e-04 3.233674e-04
          1.795707e-04 2.325955e-04 2.535616e-04 1.851152e-04 1.017264e-04 -1.621414e-04
          6.696489e-05 5.536079e-05 5.136661e-05 5.775189e-05 6.311718e-05 6.910993e-05
          3.348140e-05 -8.003872e-06 -8.701897e-06 4.714628e-06 2.163780e-06 5.077152e-06
          1.492422e-05 1.751484e-05 3.379566e-05 4.885362e-05 -2.040381e-05 -6.849271e-05
          -7.161678e-05 -7.242655e-05 -4.657712e-05 1.550117e-05 2.612939e-05 2.737123e-05
          2.429687e-05 -4.686242e-05 -6.339270e-05 -6.644053e-05 -6.982046e-05 -6.719882e-05
          -8.594593e-06 4.059871e-05 4.579352e-05 4.321955e-05 3.684832e-05 2.920183e-05
          2.240927e-05 3.432748e-06 -1.584209e-05 1.500731e-05 -2.136401e-05 -1.114478e-05
          -1.052192e-06 -2.683272e-06 -3.494368e-06 -5.901608e-08 3.750511e-06 1.144457e-05
          1.097992e-04 6.252633e-05 4.691766e-05 7.190448e-05 9.426374e-05 1.250786e-04
          2.561018e-05 -4.033736e-05 -5.982566e-05 -4.464747e-05 -6.354908e-05 -5.099670e-05
          -1.488403e-05 -1.174062e-05 5.334463e-05 1.211898e-04 -5.044967e-05 -1.322773e-04
          -1.340734e-04 -1.399744e-04 -8.087370e-05 -1.153807e-05 2.215738e-05 2.731472e-05
          2.476065e-05 -6.095998e-05 -9.777492e-05 -1.102774e-04 -1.286476e-04 -1.367927e-04
          -1.343123e-05 8.810584e-05 1.021556e-04 9.139613e-05 6.500875e-05 3.592695e-05
          1.401800e-05 -5.410382e-05 -1.049359e-04 7.246804e-05 -1.028043e-04 -1.098125e-04
          -7.999100e-05 -8.976067e-05 -9.318262e-05 -7.918490e-05 -6.257007e-05 -1.437045e-05
          7.933182e-05 2.314713e-04 2.849124e-04 2.106049e-04 1.384098e-04 2.685944e-05
          1.403234e-04 -8.885220e-05 -7.520095e-05 -1.022018e-04 -3.533409e-05 -4.385822e-05
          3.315765e-05 1.567878e-04 -2.183605e-05 -2.360167e-04 4.354219e-05 1.981435e-05
          -3.581906e-06 1.752508e-05 -7.255871e-05 1.489408e-04 7.426438e-05 5.787651e-05
          4.282771e-05 -1.702784e-04 -1.234198e-04 -8.069797e-05 -9.409642e-06 6.452268e-05
          -5.389488e-05 -1.370439e-04 -1.626265e-04 -1.289918e-04 -4.664727e-05 4.606239e-05
          1.116440e-04 3.013237e-04 3.861003e-04 -3.570559e-04 8.931565e-05 1.119241e-04
          1.768456e-05 5.077479e-05 6.502647e-05 2.240470e-05 -2.964953e-05 -1.938964e-04
          1.325879e-04 2.062279e-05 -1.755807e-05 4.023476e-05 9.408675e-05 1.723554e-04
          -8.800142e-08 -2.886639e-05 -6.148528e-05 -3.211170e-05 -7.875048e-05 -5.483782e-05
          -5.666965e-06 -2.422666e-05 1.221815e-04 2.801169e-04 -6.448471e-05 -1.927178e-04
          -1.902074e-04 -2.046278e-04 -8.642954e-05 -2.123332e-05 5.165704e-05 6.385184e-05
          6.300548e-05 -3.037333e-05 -1.017647e-04 -1.320140e-04 -1.783833e-04 -2.085960e-04
          2.076137e-05 2.059083e-04 2.344333e-04 2.091795e-04 1.465318e-04 7.598671e-05
          2.402993e-05 -1.294386e-04 -2.313022e-04 2.256213e-04 -1.726012e-04 -1.908580e-04
          -1.192665e-04 -1.422561e-04 -1.508579e-04 -1.180854e-04 -7.892725e-05 3.868775e-05
          7.257137e-05 2.211988e-04 2.730180e-04 2.004634e-04 1.304138e-04 2.237733e-05
          1.401183e-04 -7.403144e-05 -5.719775e-05 -8.079145e-05 -1.496826e-05 -2.281926e-05
          5.559513e-05 1.785087e-04 3.423894e-06 -2.075971e-04 5.693897e-05 2.519339e-05
          1.552128e-06 2.244132e-05 -6.127074e-05 1.705796e-04 9.872863e-05 8.272537e-05
          6.718944e-05 -1.577677e-04 -1.146869e-04 -7.298599e-05 -3.056924e-06 7.054018e-05
          -3.584641e-05 -1.094226e-04 -1.340628e-04 -1.011724e-04 -2.110080e-05 6.816776e-05
          1.310179e-04 3.163532e-04 3.974881e-04 -3.335145e-04 1.004482e-04 1.263852e-04
          3.624794e-05 6.916498e-05 8.323655e-05 4.165251e-05 -9.257862e-06 -1.704602e-04
          1.017199e-04 4.180627e-05 2.120411e-05 5.264515e-05 8.180153e-05 1.233860e-04
          2.144572e-05 -1.892477e-05 -3.603772e-05 -1.500594e-05 -3.883227e-05 -2.359178e-05
          1.796599e-05 1.875140e-05 9.866621e-05 1.817434e-04 -3.186708e-05 -1.307599e-04
          -1.323903e-04 -1.396448e-04 -6.450861e-05 1.932365e-05 6.182215e-05 6.833713e-05
          6.529968e-05 -3.841752e-05 -8.470441e-05 -1.007486e-04 -1.243546e-04 -1.355222e-04
          1.755850e-05 1.427448e-04 1.598415e-04 1.463268e-04 1.123395e-04 7.337959e-05
          4.402443e-05 -4.038171e-05 -1.025080e-04 1.246545e-04 -9.664815e-05 -1.012767e-04
          -6.083693e-05 -7.244362e-05 -7.668234e-05 -5.896204e-05 -3.798054e-05 2.305568e-05
          4.611108e-05 1.127671e-04 1.356733e-04 1.036936e-04 7.296068e-05 2.546898e-05
          7.577223e-05 -3.233040e-05 -2.489913e-05 -3.290457e-05 -2.917576e-06 -3.112076e-06
          5.157386e-05 1.197915e-04 4.278936e-05 -5.349041e-05 3.993925e-05 -2.034972e-07
          -1.328259e-05 -3.598642e-06 -3.071626e-05 1.160004e-04 8.729096e-05 8.013118e-05
          7.093516e-05 -7.648947e-05 -6.424152e-05 -4.546028e-05 -1.307579e-05 2.422547e-05
          2.666663e-06 -7.878703e-06 -1.744631e-05 -2.712868e-06 3.236526e-05 7.055498e-05
          9.699236e-05 1.785157e-04 2.084764e-04 -1.358889e-04 4.400666e-05 5.732052e-05
          1.892402e-05 3.439792e-05 4.118088e-05 2.283726e-05 1.739580e-07 -7.256516e-05
          -2.250908e-05 3.756555e-05 5.787945e-05 2.846618e-05 1.154403e-06 -3.902036e-05
          3.323768e-05 -7.947966e-06 1.064011e-06 -1.356378e-05 1.171974e-05 9.627221e-06
          4.603410e-05 9.766673e-05 2.563274e-05 -6.109774e-05 5.838658e-05 5.936460e-05
          5.134856e-05 5.953317e-05 2.168145e-05 9.622626e-05 6.672889e-05 6.035046e-05
          5.511444e-05 -1.378137e-05 6.602275e-06 2.322332e-05 5.085911e-05 7.829705e-05
          2.253408e-05 -1.864393e-05 -2.975983e-05 -1.646827e-05 1.502759e-05 4.914434e-05
          7.369860e-05 1.509440e-04 1.878283e-04 -1.030264e-04 6.111893e-05 6.617204e-05
          3.042599e-05 4.400083e-05 4.988804e-05 3.328302e-05 1.291078e-05 -4.920927e-05
          -4.179947e-05 -8.006929e-05 -9.363825e-05 -7.473101e-05 -5.598393e-05 -2.600796e-05
          -4.783026e-05 2.129705e-05 1.453954e-05 1.552100e-05 -2.624035e-06 1.863901e-06
          -5.160317e-06 -2.892625e-05 1.696077e-05 7.111763e-05 4.708638e-06 1.503867e-05
          2.141756e-05 1.576818e-05 3.666336e-05 -2.547158e-05 -6.173942e-06 -1.943084e-06
          2.231760e-06 6.360564e-05 5.287899e-05 4.206501e-05 2.396424e-05 4.643388e-06
          3.007673e-05 4.725203e-05 5.339705e-05 4.484006e-05 2.345384e-05 -7.687159e-07
          -1.737746e-05 -6.453197e-05 -8.495479e-05 1.011991e-04 -2.649245e-05 -4.034808e-05
          -1.739159e-05 -2.586252e-05 -2.917441e-05 -1.818273e-05 -4.780689e-06 3.953571e-05
          -6.108496e-05 -5.841017e-05 -5.744833e-05 -5.951568e-05 -6.117822e-05 -6.194461e-05
          -3.864134e-05 9.380613e-06 9.759851e-06 -4.078554e-07 -1.423923e-06 -5.755976e-06
          -3.091248e-05 -4.756095e-05 -5.363485e-05 -5.511888e-05 2.374483e-06 5.684683e-05
          6.191689e-05 6.142721e-05 3.869864e-05 -4.565521e-05 -5.313003e-05 -5.338395e-05
          -4.897093e-05 4.424732e-05 5.957374e-05 5.996661e-05 5.902128e-05 5.123718e-05
          -5.555255e-06 -5.416591e-05 -5.796866e-05 -5.736236e-05 -5.531310e-05 -5.204034e-05
          -4.843743e-05 -4.087332e-05 -2.551927e-05 -6.920466e-06 1.369113e-05 4.806815e-06
          -2.626445e-07 -9.339899e-07 -1.178929e-06 -2.239241e-06 -3.134679e-06 -2.257207e-06
          -9.497621e-05 4.176397e-05 8.931610e-05 2.014017e-05 -4.548341e-05 -1.423481e-04
          2.732651e-05 -2.310259e-05 -5.469488e-07 -4.155346e-05 1.459341e-05 -6.072661e-06
          -1.657774e-05 3.902255e-05 -1.319178e-04 -3.218293e-04 5.778782e-05 1.707607e-04
          1.631790e-04 1.805688e-04 4.981364e-05 3.587126e-05 -4.695110e-05 -6.168515e-05
          -6.400087e-05 -2.160312e-05 5.522840e-05 9.266422e-05 1.512222e-04 1.953892e-04
          -4.348960e-05 -2.330558e-04 -2.646341e-04 -2.341805e-04 -1.585353e-04 -7.222887e-05
          -8.601963e-06 1.735330e-04 2.848502e-04 -3.033344e-04 1.440354e-04 1.530129e-04
          6.306955e-05 9.067898e-05 1.020206e-04 6.270497e-05 1.555885e-05 -1.256907e-04
          -4.870479e-05 -1.678847e-04 -2.087746e-04 -1.500941e-04 -9.372192e-05 -6.801678e-06
          -1.164036e-04 2.592143e-05 2.363074e-07 9.803156e-06 -4.481898e-05 -3.410051e-05
          -7.210061e-05 -1.550220e-04 -1.047579e-05 1.616026e-04 -5.336749e-05 -3.127555e-05
          -1.280687e-05 -3.018314e-05 3.615879e-05 -1.470189e-04 -8.788567e-05 -7.482565e-05
          -6.245342e-05 1.155728e-04 8.080691e-05 4.754285e-05 -8.293257e-06 -6.679227e-05
          2.050043e-05 8.171104e-05 1.020512e-04 7.537408e-05 1.068166e-05 -6.036721e-05
          -1.095940e-04 -2.595989e-04 -3.269195e-04 2.528480e-04 -1.198399e-04 -1.559021e-04
          -8.691152e-05 -1.141261e-04 -1.250378e-04 -9.130699e-05 -5.001359e-05 8.342898e-05
          -1.017397e-04 1.504584e-04 2.380727e-04 1.116814e-04 -8.121066e-06 -1.867955e-04
          1.007667e-04 -5.867311e-05 -1.985154e-05 -8.583882e-05 1.989531e-05 -1.005776e-05
          2.079491e-05 1.576228e-04 -1.524474e-04 -5.060387e-04 1.188067e-04 2.488470e-04
          2.270953e-04 2.601313e-04 4.921220e-05 1.500117e-04 6.875864e-06 -2.012971e-05
          -3.112337e-05 -9.128427e-05 2.955536e-05 9.903254e-05 2.101782e-04 3.045098e-04
          -5.779212e-05 -3.401768e-04 -3.936100e-04 -3.376001e-04 -1.995829e-04 -4.371688e-05
          6.982601e-05 3.999229e-04 5.852894e-04 -5.474249e-04 2.452813e-04 2.689232e-04
          1.076561e-04 1.603949e-04 1.822760e-04 1.104499e-04 2.363901e-05 -2.398445e-04
          -3.946355e-05 -3.738420e-05 -3.687437e-05 -3.742804e-05 -3.702491e-05 -3.453359e-05
          -2.081067e-05 -4.749749e-06 -1.178629e-05 -2.367500e-05 -2.534982e-05 -2.004204e-05
          1.066466e-05 3.017432e-05 3.016279e-05 2.750661e-05 3.424884e-05 3.752364e-05
          3.760958e-05 3.723293e-05 3.450177e-05 3.302117e-05 3.375108e-05 3.382403e-05
          3.393397e-05 3.758815e-05 3.889790e-05 3.940432e-05 4.022393e-05 4.055092e-05
          3.546775e-05 3.120060e-05 3.059585e-05 3.078275e-05 3.043587e-05 2.957917e-05
          3.001816e-05 3.340299e-05 3.494386e-05 1.973468e-05 -8.852716e-06 -2.526038e-05
          -2.775767e-05 -2.746830e-05 -2.663490e-05 -2.664085e-05 -2.675119e-05 -2.283219e-05
          -4.172266e-06 1.373848e-05 1.981790e-05 1.221403e-05 5.351642e-06 -3.847918e-06
          9.674908e-06 -2.721598e-05 -3.648974e-05 -5.010181e-05 -4.454391e-05 -3.643931e-05
          2.353266e-05 7.034763e-05 5.424214e-05 2.899694e-05 3.991049e-05 1.465773e-05
          9.705323e-06 1.176820e-05 9.121971e-06 7.216482e-05 6.859004e-05 6.687425e-05
          6.331159e-05 -4.900126e-07 -9.799019e-07 4.206512e-06 1.350448e-05 2.592313e-05
          3.399831e-05 4.338339e-05 4.172169e-05 4.536266e-05 5.301864e-05 6.094129e-05
          6.724543e-05 8.816818e-05 9.165593e-05 -1.787448e-05 -1.534555e-05 -3.040908e-05
          -4.208133e-05 -3.803157e-05 -3.528330e-05 -3.941203e-05 -4.466792e-05 -5.807770e-05
          6.962349e-05 7.309109e-05 7.466983e-05 7.448211e-05 7.331695e-05 7.006397e-05
          3.867168e-05 -4.282000e-05 -5.390339e-05 -5.388232e-05 -5.211683e-05 -4.396669e-05
          6.401556e-06 4.200574e-05 4.458946e-05 4.035193e-05 -6.754065e-06 -6.324424e-05
          -6.935794e-05 -6.862322e-05 -5.102883e-05 4.147340e-05 4.718410e-05 4.686522e-05
          4.201553e-05 -5.850467e-05 -7.149294e-05 -7.008656e-05 -6.608405e-05 -5.506049e-05
          -3.394425e-06 4.230141e-05 4.548493e-05 4.603820e-05 4.673475e-05 4.762127e-05
          4.769571e-05 4.652805e-05 3.306114e-05 -1.989890e-05 -4.551916e-05 -5.020759e-05
          -5.212635e-05 -5.106863e-05 -4.976249e-05 -5.005824e-05 -5.066609e-05 -5.415226e-05
          8.538194e-05 6.964300e-05 6.408244e-05 7.322579e-05 8.097467e-05 9.043571e-05
          4.272823e-05 -1.614775e-05 -2.071091e-05 -6.123732e-06 -1.042050e-05 -3.348283e-06
          2.691592e-05 4.123570e-05 6.481988e-05 8.519426e-05 -1.557055e-05 -8.786780e-05
          -9.282542e-05 -9.401252e-05 -5.649518e-05 3.945311e-05 5.561713e-05 5.724805e-05
          5.256588e-05 -5.622760e-05 -8.050566e-05 -8.452552e-05 -8.883420e-05 -8.404272e-05
          2.245798e-06 7.503383e-05 8.245568e-05 7.890924e-05 6.957342e-05 5.820382e-05
          4.851452e-05 2.238679e-05 -5.770829e-06 2.875091e-05 -3.726162e-05 -2.946746e-05