<?xml version="1.0"?>
<VTKFile type="RectilinearGrid" version="0.1" byte_order="LittleEndian">
  <RectilinearGrid WholeExtent="0 47 0 47 0 47">
    <Piece Extent="0 47 0 47 0 47">
      <PointData Scalars="concentration">
        <DataArray type="Float32" Name="concentration" NumberOfComponents="1" format="ascii">
          9.220199e-05 1.221718e-04 1.326700e-04 1.193856e-04 1.065183e-04 8.437590e-05
          7.554922e-05 -4.640533e-05 -5.107801e-05 -5.003410e-05 -3.555078e-05 -2.798732e-05
          4.315068e-05 1.052833e-04 7.677444e-05 3.283446e-05 1.460545e-05 -6.642659e-05
          -7.831219e-05 -7.371364e-05 -6.259169e-05 1.026263e-04 9.752034e-05 9.460122e-05
          8.519165e-05 -8.988130e-05 -1.005586e-04 -9.157442e-05 -7.443461e-05 -4.747881e-05
          4.750632e-06 5.386771e-05 5.358941e-05 5.990585e-05 7.449649e-05 8.983110e-05
          9.946479e-05 1.305083e-04 1.270448e-04 -6.620464e-05 -1.762470e-05 -1.157173e-05
          -2.688959e-05 -1.926727e-05 -1.535136e-05 -2.306000e-05 -3.275231e-05 -6.650406e-05
          9.022349e-05 1.185458e-04 1.286734e-04 1.162063e-04 1.042625e-04 8.366098e-05
          7.242681e-05 -5.052449e-05 -5.768693e-05 -5.853496e-05 -4.514928e-05 -3.620182e-05
          4.127472e-05 1.066805e-04 8.084193e-05 3.945138e-05 1.671374e-05 -6.578956e-05
          -7.764652e-05 -7.336294e-05 -6.096298e-05 1.045726e-04 1.008176e-04 9.808443e-05
          8.874023e-05 -8.676844e-05 -9.826660e-05 -8.971075e-05 -7.322578e-05 -4.676608e-05
          8.229319e-06 5.961754e-05 5.968361e-05 6.559845e-05 7.911814e-05 9.330780e-05
          1.023198e-04 1.312081e-04 1.262242e-04 -6.184482e-05 -2.505097e-05 -2.269300e-05
          -3.751195e-05 -3.030620e-05 -2.643357e-05 -3.356593e-05 -4.262105e-05 -7.359011e-05
          2.128688e-05 2.401635e-04 3.160677e-04 2.081043e-04 1.056852e-04 -4.988598e-05
          1.613682e-04 -7.662191e-05 -4.744528e-05 -9.060919e-05 4.284760e-06 -1.003304e-05
          8.764600e-05 2.552141e-04 -6.465891e-06 -3.177236e-04 1.166325e-04 1.169711e-04
          8.716320e-05 1.170863e-04 -2.266332e-05 2.460348e-04 1.354633e-04 1.121045e-04
          9.306324e-05 -1.577486e-04 -8.245396e-05 -2.141624e-05 7.961932e-05 1.800287e-04
          -2.249582e-05 -1.707847e-04 -2.104611e-04 -1.620232e-04 -4.428734e-05 8.647683e-05
          1.796464e-04 4.577084e-04 5.898302e-04 -4.616500e-04 1.811022e-04 2.119602e-04
          7.837320e-05 1.263868e-04 1.468166e-04 8.534500e-05 1.048634e-05 -2.227449e-04
          5.940879e-05 -1.110209e-04 -1.701197e-04 -8.395521e-05 -9.575743e-07 1.240799e-04
          -7.013248e-05 2.411025e-05 -1.290612e-05 2.236253e-05 -5.099188e-05 -2.053021e-05
          1.744365e-05 -3.755235e-05 1.773722e-04 4.152776e-04 -3.856853e-05 -1.591320e-04
          -1.475263e-04 -1.703415e-04 -1.554418e-05 -2.975093e-05 7.333121e-05 9.208643e-05
          9.678723e-05 8.016582e-05 -1.022874e-05 -5.699608e-05 -1.307275e-04 -1.892023e-04
          8.808658e-05 3.068603e-04 3.447794e-04 3.065366e-04 2.109879e-04 1.019536e-04
          2.316919e-05 -2.016638e-04 -3.359455e-04 4.003856e-04 -1.910225e-04 -2.239191e-04
          -1.145891e-04 -1.497337e-04 -1.633447e-04 -1.139619e-04 -5.447396e-05 1.294350e-04
          -2.578029e-05 1.281141e-04 1.810611e-04 1.051351e-04 3.414398e-05 -7.156787e-05
          9.868360e-05 -3.311546e-05 -1.056380e-05 -4.434408e-05 2.164570e-05 1.421274e-05
          9.758122e-05 2.242201e-04 3.962079e-05 -1.817399e-04 1.224384e-04 1.218643e-04
          1.009096e-04 1.219078e-04 2.536097e-05 2.192080e-04 1.427380e-04 1.264514e-04
          1.128976e-04 -6.773129e-05 -1.572636e-05 2.704767e-05 9.805925e-05 1.688868e-04
          2.833116e-05 -7.485666e-05 -1.031506e-04 -6.906334e-05 1.261404e-05 1.018684e-04
          1.658172e-04 3.629374e-04 4.562968e-04 -2.883832e-04 1.460438e-04 1.636106e-04
          7.131504e-05 1.058014e-04 1.205938e-04 7.757882e-05 2.513739e-05 -1.363847e-04
          -2.933389e-05 1.270580e-04 1.806960e-04 1.034460e-04 3.118420e-05 -7.630296e-05
          1.000504e-04 -2.670765e-05 -1.242170e-06 -3.380125e-05 3.357909e-05 2.483513e-05
          1.028324e-04 2.271838e-04 3.865507e-05 -1.867566e-04 1.249149e-04 1.270919e-04
          1.061725e-04 1.275512e-04 2.882174e-05 2.217497e-04 1.434315e-04 1.268690e-04
          1.132879e-04 -6.599638e-05 -1.259260e-05 3.084115e-05 1.029030e-04 1.743874e-04
          2.907779e-05 -7.805757e-05 -1.070097e-04 -7.231568e-05 1.084778e-05 1.015585e-04
          1.664079e-04 3.671046e-04 4.629433e-04 -2.909602e-04 1.567215e-04 1.775933e-04
          8.435839e-05 1.195260e-04 1.344458e-04 9.062135e-05 3.723768e-05 -1.277069e-04
          8.426645e-05 -1.372537e-04 -2.143115e-04 -1.027301e-04 4.073424e-06 1.644362e-04
          -8.645101e-05 4.551015e-05 5.381453e-06 5.871281e-05 -3.514699e-05 -1.453965e-06
          1.461589e-05 -7.798598e-05 1.980307e-04 5.069923e-04 -6.989886e-05 -2.130857e-04
          -1.964995e-04 -2.259077e-04 -2.915769e-05 -6.974910e-05 6.099710e-05 8.521836e-05
          9.238410e-05 9.385833e-05 -2.026433e-05 -8.113995e-05 -1.774742e-04 -2.557118e-04
          9.158396e-05 3.644863e-04 4.130059e-04 3.635430e-04 2.405581e-04 1.004619e-04
          -1.352172e-06 -2.927413e-04 -4.632440e-04 5.081993e-04 -2.280247e-04 -2.583434e-04
          -1.154312e-04 -1.611217e-04 -1.793905e-04 -1.157501e-04 -3.898116e-05 1.960476e-04
          3.382569e-05 3.557451e-04 4.671229e-04 3.075144e-04 1.551311e-04 -7.688137e-05
          2.395168e-04 -8.854421e-05 -3.300031e-05 -8.605919e-05 5.565465e-05 2.494294e-05
          1.137496e-04 3.252616e-04 -6.535298e-05 -5.234589e-04 1.420293e-04 1.701838e-04
          1.291969e-04 1.736093e-04 -4.145647e-05 3.090477e-04 1.406483e-04 1.059948e-04
          8.019713e-05 -2.414345e-04 -1.236759e-04 -3.411795e-05 1.134502e-04 2.566869e-04
          -6.818719e-05 -3.097840e-04 -3.698276e-04 -2.981340e-04 -1.230160e-04 7.204332e-05
          2.103264e-04 6.212602e-04 8.236208e-04 -6.973709e-04 3.002133e-04 3.639307e-04
          1.683130e-04 2.387891e-04 2.679376e-04 1.766388e-04 6.557523e-05 -2.832894e-04
          1.182649e-04 8.757113e-05 7.702759e-05 9.358127e-05 1.086436e-04 1.279176e-04
          5.267509e-05 -2.066605e-05 -2.856282e-05 -6.549239e-06 -1.634207e-05 -6.249991e-06
          3.085781e-05 4.325742e-05 8.640657e-05 1.272465e-04 -2.837990e-05 -1.274349e-04
          -1.326800e-04 -1.358844e-04 -7.861340e-05 4.105135e-05 6.751117e-05 7.094992e-05
          6.524855e-05 -7.291168e-05 -1.092661e-04 -1.171143e-04 -1.270694e-04 -1.249115e-04
          1.490339e-06 1.072303e-04 1.189144e-04 1.120198e-04 9.440351e-05 7.366140e-05
          5.664752e-05 9.340258e-06 -3.478925e-05 5.623827e-05 -6.017576e-05 -5.082554e-05
          -2.696544e-05 -3.211436e-05 -3.384444e-05 -2.472319e-05 -1.413512e-05 1.262776e-05
          9.009480e-05 1.190340e-04 1.290268e-04 1.155651e-04 1.021495e-04 7.898217e-05
          7.573026e-05 -2.655929e-05 -2.230019e-05 -1.401452e-05 1.565244e-06 3.106401e-06
          3.877989e-05 7.794047e-05 4.661377e-05 3.447271e-06 -4.327166e-07 -6.438763e-05
          -7.432791e-05 -6.961492e-05 -6.347492e-05 7.357566e-05 6.542219e-05 6.235916e-05
          5.439885e-05 -9.109090e-05 -9.785992e-05 -8.935430e-05 -7.323969e-05 -4.948243e-05
          -1.274688e-05 2.263903e-05 2.137591e-05 2.778268e-05 4.301567e-05 5.925389e-05
          6.901538e-05 1.002874e-04 1.014321e-04 -7.151310e-05 7.448447e-06 2.585545e-05
          1.210776e-05 1.950694e-05 2.277573e-05 1.482512e-05 4.796438e-06 -3.169218e-05
          5.182122e-05 8.747801e-05 9.951562e-05 8.227588e-05 6.554869e-05 3.848955e-05
          5.891468e-05 -1.205684e-05 -3.225274e-06 8.792125e-07 1.868312e-05 1.662674e-05
          3.573072e-05 6.650141e-05 2.450069e-05 -2.796119e-05 9.589634e-06 -2.467497e-05
          -3.257633e-05 -2.720182e-05 -3.612642e-05 6.258779e-05 4.761843e-05 4.375270e-05
          3.767213e-05 -6.429919e-05 -6.123453e-05 -5.113540e-05 -3.319781e-05 -1.127122e-05
          -9.710293e-06 -4.177418e-06 -8.523964e-06 -5.890046e-07 1.859139e-05 3.933561e-05
          5.276335e-05 9.528463e-05 1.084204e-04 -7.879073e-05 3.189959e-05 5.025908e-05
          3.169552e-05 4.022367e-05 4.373076e-05 3.370636e-05 2.131447e-05 -2.127187e-05
          1.899023e-05 2.305569e-05 2.372008e-05 2.198252e-05 2.038479e-05 1.729709e-05
          2.086300e-05 1.173626e-05 1.822768e-05 2.591855e-05 2.933158e-05 2.876734e-05
          2.962058e-05 3.274635e-05 2.745821e-05 1.961908e-05 7.009013e-06 -1.363522e-05
          -1.586929e-05 -1.497389e-05 -8.291348e-06 3.102636e-05 3.091309e-05 3.044383e-05
          2.819912e-05 -1.449845e-05 -1.907743e-05 -1.798706e-05 -1.534370e-05 -1.019065e-05
          7.662019e-06 2.311919e-05 2.360648e-05 2.453017e-05 2.643777e-05 2.770685e-05
          2.757929e-05 3.149205e-05 2.931828e-05 1.259964e-06 1.847956e-05 3.014951e-05
          3.097351e-05 3.253416e-05 3.301640e-05 3.189287e-05 3.045790e-05 2.299978e-05
          -6.108671e-07 -1.190441e-05 -1.682695e-05 -1.092219e-05 -5.034359e-06 3.783332e-06
          -5.826832e-07 2.134973e-05 2.557379e-05 3.347808e-05 2.951016e-05 3.005721e-05
          2.413944e-05 1.493507e-05 2.788155e-05 4.210911e-05 6.883873e-06 -5.150485e-06
          -4.516647e-06 -5.845561e-06 7.538391e-06 1.464986e-05 2.176172e-05 2.298595e-05
          2.276864e-05 1.273027e-05 4.966160e-06 1.658515e-06 -3.298935e-06 -6.636049e-06
          1.714268e-05 3.573688e-05 3.851729e-05 3.598252e-05 2.935870e-05 2.110596e-05
          1.450457e-05 -3.481860e-07 -9.622347e-06 4.049856e-05 9.244764e-06 1.550802e-05
          2.539331e-05 2.344855e-05 2.248231e-05 2.573842e-05 2.975133e-05 4.010858e-05
          -1.721123e-05 3.919912e-05 5.792102e-05 2.982443e-05 3.033045e-06 -3.756207e-05
          2.981689e-05 1.618616e-06 1.676653e-05 8.537465e-06 3.329042e-05 2.402089e-05
          1.616800e-05 3.732601e-05 -3.343107e-05 -1.133011e-04 2.378532e-05 5.119656e-05
          4.635328e-05 5.399483e-05 8.602139e-06 3.441160e-05 2.023592e-06 -4.131609e-06
          -6.876210e-06 -2.434763e-05 1.765649e-06 1.714336e-05 4.183648e-05 6.306464e-05
          -1.525696e-05 -7.647654e-05 -8.819001e-05 -7.565266e-05 -4.465326e-05 -9.930587e-06
          1.464344e-05 8.825851e-05 1.298305e-04 -1.193914e-04 7.267662e-05 8.781558e-05
          5.382168e-05 6.581022e-05 7.043053e-05 5.427102e-05 3.486686e-05 -2.672999e-05
          1.948710e-05 -4.779881e-05 -7.145982e-05 -3.809976e-05 -7.023737e-06 3.855348e-05
          -3.754945e-05 1.836831e-05 1.106605e-05 2.930054e-05 9.671606e-07 2.913469e-06
          -4.111472e-05 -1.013822e-04 -2.092002e-05 7.596298e-05 -5.942260e-05 -6.093697e-05
          -5.176867e-05 -6.094471e-05 -1.761322e-05 -9.987263e-05 -6.654633e-05 -5.944703e-05
          -5.374216e-05 2.216511e-05 -1.222983e-06 -1.999199e-05 -5.108381e-05 -8.196264e-05
          -1.826335e-05 2.859704e-05 4.127802e-05 2.628324e-05 -9.335005e-06 -4.820414e-05
          -7.650450e-05 -1.631941e-04 -2.043473e-04 1.236399e-04 -5.857714e-05 -6.133098e-05
          -2.009111e-05 -3.521415e-05 -4.188718e-05 -2.309404e-05 -6.047931e-08 6.916167e-05
          -1.083769e-05 9.067966e-05 1.257246e-04 7.458125e-05 2.486178e-05 -5.148312e-05
          5.260976e-05 -2.302369e-05 -1.107425e-06 -1.886486e-05 2.537389e-05 5.953912e-06
          -2.404048e-05 4.237749e-06 -1.231856e-04 -2.636808e-04 2.907468e-06 7.112139e-05
          6.400105e-05 7.752684e-05 -1.370004e-05 -1.345532e-06 -6.286527e-05 -7.409573e-05
          -7.718814e-05 -7.219078e-05 -1.907332e-05 8.830359e-06 5.286881e-05 8.803843e-05
          -7.369791e-05 -2.009675e-04 -2.229843e-04 -2.003444e-04 -1.430156e-04 -7.696703e-05
          -2.971643e-05 1.029495e-04 1.817141e-04 -2.551097e-04 1.062516e-04 1.297944e-04
          6.453298e-05 8.511452e-05 9.294030e-05 6.350658e-05 2.816102e-05 -8.304671e-05
          1.223157e-06 -5.416895e-05 -7.341496e-05 -4.617229e-05 -2.080411e-05 1.685434e-05
          -4.243111e-05 1.306428e-05 5.436993e-06 1.662076e-05 -7.464810e-06 -6.552756e-06
          -4.774919e-05 -1.009563e-04 -3.508522e-05 4.567231e-05 -5.104419e-05 -3.719228e-05
          -2.808263e-05 -3.598242e-05 -6.552244e-06 -9.902448e-05 -7.313926e-05 -6.736075e-05
          -6.130213e-05 2.841940e-05 1.333874e-05 -2.150788e-06 -2.832374e-05 -5.628553e-05
          -1.919309e-05 6.205226e-06 1.577106e-05 3.368409e-06 -2.572356e-05 -5.702835e-05
          -7.939243e-05 -1.496636e-04 -1.798958e-04 9.808115e-05 -5.048990e-05 -5.718683e-05
          -2.474647e-05 -3.766196e-05 -4.332183e-05 -2.786462e-05 -8.852854e-06 4.957337e-05
          -1.732279e-06 -4.576208e-05 -6.148819e-05 -3.985601e-05 -1.937068e-05 1.157672e-05
          -2.716059e-05 2.809780e-05 2.740669e-05 4.120111e-05 2.309990e-05 2.408605e-05
          -6.743723e-06 -4.741574e-05 3.869581e-06 6.548094e-05 -2.375255e-05 -2.527572e-05
          -1.891884e-05 -2.499395e-05 4.602613e-06 -4.659149e-05 -2.466738e-05 -2.009356e-05
          -1.643648e-05 3.039034e-05 1.453560e-05 2.184147e-06 -1.805251e-05 -3.821829e-05
          4.663519e-06 3.596683e-05 4.403756e-05 3.428502e-05 1.079572e-05 -1.562647e-05
          -3.505934e-05 -9.082864e-05 -1.172652e-04 9.667530e-05 -2.113404e-05 -1.965282e-05
          8.870646e-06 -6.162058e-07 -4.917853e-06 7.363405e-06 2.234505e-05 6.720228e-05
          -5.769363e-05 2.066072e-04 2.973461e-04 1.650789e-04 3.915472e-05 -1.501647e-04
          1.489169e-04 -2.989297e-05 2.675158e-05 -2.063615e-05 9.469300e-05 6.017525e-05
          7.631274e-05 2.114454e-04 -1.163994e-04 -4.919242e-04 1.232709e-04 2.189840e-04
          1.927822e-04 2.286013e-04 2.578558e-05 1.990803e-04 5.188367e-05 2.313258e-05
          7.992095e-06 -1.307316e-04 -1.561990e-05 5.725230e-05 1.753501e-04 2.808592e-04
          -5.671576e-05 -3.170015e-04 -3.708029e-04 -3.117816e-04 -1.668006e-04 -4.876733e-06
          1.107145e-04 4.545688e-04 6.403240e-04 -5.620712e-04 2.961327e-04 3.505280e-04
          1.885406e-04 2.455178e-04 2.683313e-04 1.927887e-04 1.012941e-04 -1.841101e-04
          2.741637e-05 -9.700211e-05 -1.408428e-04 -7.888690e-05 -1.997728e-05 6.859999e-05
          -5.842635e-05 5.235954e-05 4.056008e-05 7.631246e-05 2.469244e-05 3.566129e-05
          -2.083739e-06 -8.450231e-05 6.548515e-05 2.389699e-04 -5.375158e-05 -1.009838e-04
          -8.803051e-05 -1.046070e-04 -5.615309e-06 -8.130296e-05 -1.320992e-05 7.484379e-08
          6.807975e-06 6.454533e-05 8.790917e-06 -2.575125e-05 -8.122995e-05 -1.307255e-04
          3.223926e-05 1.573438e-04 1.826318e-04 1.550551e-04 8.730112e-05 1.050621e-05
          -4.570749e-05 -2.067263e-04 -2.931075e-04 2.791554e-04 -9.384948e-05 -9.873386e-05
          -1.791741e-05 -4.399245e-05 -5.507585e-05 -1.990232e-05 2.269415e-05 1.514899e-04
          4.884394e-05 3.212254e-05 2.530359e-05 3.356738e-05 4.061867e-05 4.951416e-05
          2.830376e-05 3.493772e-05 4.899558e-05 7.426803e-05 7.155729e-05 6.707841e-05
          3.022060e-05 3.682320e-07 1.680725e-05 3.678588e-05 -2.454109e-05 -5.296963e-05
          -5.303276e-05 -5.419818e-05 -3.013969e-05 -3.661809e-06 5.508852e-06 7.036741e-06
          5.797148e-06 -2.843125e-05 -4.250907e-05 -4.726673e-05 -5.386137e-05 -5.672251e-05
          -1.135563e-05 2.519369e-05 2.982516e-05 2.657223e-05 1.834101e-05 8.201270e-06
          -1.267457e-06 -2.439283e-05 -4.016229e-05 3.459948e-05 2.410364e-05 5.243997e-05
          6.872657e-05 6.622501e-05 6.453328e-05 6.868305e-05 7.352215e-05 8.179101e-05
          6.538127e-05 1.152676e-04 1.313136e-04 1.063755e-04 8.125795e-05 4.056334e-05
          8.382773e-05 2.465995e-05 5.537912e-05 7.517623e-05 1.029238e-04 8.841359e-05
          4.953319e-05 5.061881e-05 -1.574087e-05 -9.072200e-05 -9.214614e-06 -2.628697e-05
          -3.446173e-05 -2.600964e-05 -4.815710e-05 4.187086e-05 1.444207e-05 8.685756e-06
          2.477531e-06 -8.914390e-05 -7.752059e-05 -6.386537e-05 -4.022105e-05 -1.416757e-05
          -4.124077e-05 -5.920699e-05 -6.731242e-05 -5.548395e-05 -2.680666e-05 4.434230e-06
          2.390375e-05 8.596957e-05 1.138292e-04 -1.185531e-04 9.808529e-05 1.484417e-04
          1.249553e-04 1.370296e-04 1.411203e-04 1.260325e-04 1.074590e-04 4.068059e-05
          1.284473e-04 -1.475286e-04 -2.441673e-04 -1.063205e-04 2.365038e-05 2.164324e-04
          -9.595326e-05 9.066470e-05 6.199072e-05 1.484704e-04 3.564514e-05 6.006337e-05
          -1.984050e-05 -1.987209e-04 1.358971e-04 5.215779e-04 -1.541557e-04 -2.871126e-04
          -2.621528e-04 -2.977708e-04 -6.870298e-05 -1.937512e-04 -4.077675e-05 -1.126298e-05
          1.233019e-06 8.154871e-05 -4.894076e-05 -1.253319e-04 -2.473447e-04 -3.518966e-04
          3.654983e-05 3.381759e-04 3.961276e-04 3.353102e-04 1.855213e-04 1.658505e-05
          -1.077039e-04 -4.685393e-04 -6.679783e-04 5.879950e-04 -2.329887e-04 -2.364669e-04
          -5.716024e-05 -1.148292e-04 -1.391418e-04 -6.132947e-05 3.262176e-05 3.143923e-04
          1.893826e-05 2.583250e-04 3.404626e-04 2.209974e-04 1.062687e-04 -6.881105e-05
          1.787868e-04 -3.092685e-05 2.594930e-05 -1.725451e-06 1.060717e-04 7.317997e-05
          8.195135e-05 2.026039e-04 -9.434577e-05 -4.360640e-04 8.479894e-05 1.335996e-04
          1.057060e-04 1.394792e-04 -2.936019e-05 1.877917e-04 5.690965e-05 3.078000e-05
          1.369618e-05 -1.792394e-04 -8.495670e-05 -1.882700e-05 8.962199e-05 1.919207e-04
          -7.606859e-05 -2.789439e-04 -3.253911e-04 -2.715005e-04 -1.396811e-04 7.455196e-06
          1.109791e-04 4.188021e-04 5.777464e-04 -5.270952e-04 2.683620e-04 3.367203e-04
          1.932207e-04 2.456115e-04 2.665405e-04 1.977885e-04 1.141582e-04 -1.513490e-04
          6.643500e-05 5.442195e-05 5.047929e-05 5.678902e-05 6.188431e-05 6.731624e-05
          3.064248e-05 -8.606356e-06 -8.785972e-06 4.872499e-06 2.235436e-06 3.248218e-06
          1.723535e-06 -3.110373e-06 1.255033e-05 2.878269e-05 -3.093249e-05 -6.862441e-05
          -7.080878e-05 -7.161811e-05 -4.979261e-05 -5.439609e-06 3.691889e-06 4.854725e-06
          2.689209e-06 -4.939988e-05 -6.317751e-05 -6.630248e-05 -7.027750e-05 -6.929704e-05
          -2.108298e-05 1.941941e-05 2.395516e-05 2.152045e-05 1.534055e-05 8.581352e-06
          2.529822e-06 -1.639651e-05 -3.326168e-05 6.560207e-06 -2.094677e-05 -9.774132e-06
          -2.975557e-07 -2.466787e-06 -3.251716e-06 1.300534e-08 3.649761e-06 1.134707e-05
          9.885857e-05 5.162342e-05 3.655476e-05 6.088907e-05 8.266667e-05 1.123198e-04
          1.427316e-05 -4.280971e-05 -6.278847e-05 -4.997672e-05 -6.931989e-05 -5.976927e-05
          -4.118171e-05 -4.950766e-05 1.404187e-05 8.335099e-05 -6.500151e-05 -1.233426e-04
          -1.228265e-04 -1.289058e-04 -7.951415e-05 -4.917572e-05 -1.870824e-05 -1.370571e-05
          -1.422823e-05 -5.754662e-05 -8.768016e-05 -1.002011e-04 -1.195609e-04 -1.314268e-04
          -3.221024e-05 4.893055e-05 6.149662e-05 5.089279e-05 2.523152e-05 -2.035007e-06
          -2.215032e-05 -8.884309e-05 -1.339190e-04 5.823946e-05 -1.036630e-04 -1.124604e-04
          -8.476058e-05 -9.540955e-05 -9.898491e-05 -8.529216e-05 -6.904505e-05 -2.036012e-05
          5.392519e-05 2.063015e-04 2.603311e-04 1.851500e-04 1.123895e-04 9.756265e-08
          1.204291e-04 -8.863505e-05 -7.570627e-05 -1.074398e-04 -4.144218e-05 -5.327310e-05
          4.286685e-06 1.148662e-04 -6.582076e-05 -2.785311e-04 3.325385e-05 4.206090e-05
          2.187291e-05 4.262857e-05 -6.067878e-05 1.077180e-04 2.891201e-05 1.237980e-05
          1.154053e-07 -1.548903e-04 -9.892367e-05 -5.625534e-05 1.369748e-05 8.246064e-05
          -6.916627e-05 -1.805917e-04 -2.082331e-04 -1.744564e-04 -9.133444e-05 3.279712e-06
          7.101140e-05 2.631745e-04 3.560847e-04 -3.684622e-04 9.106414e-05 1.093437e-04
          1.236086e-05 4.440724e-05 5.846842e-05 1.548958e-05 -3.691684e-05 -1.997701e-04
          1.050276e-04 -6.659682e-06 -4.429799e-05 1.260061e-05 6.585481e-05 1.434499e-04
          -2.121510e-05 -2.785222e-05 -6.104603e-05 -3.659754e-05 -8.413169e-05 -6.369841e-05
          -3.488654e-05 -6.715931e-05 7.706897e-05 2.364640e-04 -7.437553e-05 -1.684767e-04
          -1.625688e-04 -1.774070e-04 -7.298360e-05 -6.340512e-05 5.129657e-06 1.722539e-05
          1.928807e-05 -1.322984e-05 -7.511610e-05 -1.054321e-04 -1.531976e-04 -1.888125e-04
          5.748430e-06 1.612651e-04 1.876011e-04 1.625173e-04 1.006567e-04 3.204252e-05
          -1.771989e-05 -1.685577e-04 -2.618636e-04 2.145889e-04 -1.699518e-04 -1.926746e-04
          -1.238578e-04 -1.479294e-04 -1.567341e-04 -1.243733e-04 -8.553904e-05 3.354924e-05
          6.607673e-05 2.147375e-04 2.670293e-04 1.938226e-04 1.229857e-04 1.334890e-05
          1.309442e-04 -7.615081e-05 -5.895499e-05 -8.356712e-05 -1.791098e-05 -2.961933e-05
          2.668509e-05 1.351989e-04 -4.161814e-05 -2.510120e-04 3.740799e-05 2.990002e-05
          8.736217e-06 2.938274e-05 -6.420179e-05 1.270740e-04 5.157996e-05 3.548850e-05
          2.203768e-05 -1.590556e-04 -1.091041e-04 -6.745708e-05 1.454704e-06 7.120399e-05
          -6.004173e-05 -1.545983e-04 -1.807246e-04 -1.476640e-04 -6.670822e-05 2.466564e-05
          8.938276e-05 2.760301e-04 3.631106e-04 -3.512645e-04 1.007343e-04 1.268584e-04
          3.472539e-05 6.668733e-05 8.051553e-05 3.851508e-05 -1.276109e-05 -1.741121e-04
          9.071606e-05 3.085029e-05 1.066637e-05 4.147895e-05 7.004653e-05 1.106374e-04
          1.060297e-05 -2.008776e-05 -3.725063e-05 -1.820936e-05 -4.238684e-05 -3.017070e-05
          -6.078842e-06 -1.683047e-05 6.159508e-05 1.460384e-04 -4.533610e-05 -1.216317e-04
          -1.209474e-04 -1.285050e-04 -6.251317e-05 -1.614806e-05 2.315390e-05 2.964525e-05
          2.853703e-05 -3.449056e-05 -7.445756e-05 -9.054541e-05 -1.150527e-04 -1.298371e-04
          1.468306e-07 1.057587e-04 1.214440e-04 1.080519e-04 7.474864e-05 3.748682e-05
          9.744587e-06 -7.325007e-05 -1.297903e-04 1.118380e-04 -9.609656e-05 -1.019928e-04
          -6.339495e-05 -7.581995e-05 -8.026810e-05 -6.288524e-05 -4.217852e-05 1.924560e-05
          5.103391e-06 7.204293e-05 9.517436e-05 6.254091e-05 3.188093e-05 -1.432633e-05
          5.039633e-05 -2.695526e-05 -2.093520e-05 -3.632442e-05 -7.749773e-06 -8.803383e-06
          4.025556e-05 1.038047e-04 2.551982e-05 -7.019455e-05 5.004822e-05 3.730231e-05
          2.692304e-05 3.606737e-05 -1.746946e-06 1.017023e-04 7.027235e-05 6.319986e-05
          5.629945e-05 -4.306812e-05 -2.350271e-05 -4.811838e-06 2.645924e-05 5.936236e-05
          1.029729e-05 -2.396807e-05 -3.536510e-05 -2.063016e-05 1.450896e-05 5.311207e-05
          8.073880e-05 1.650236e-04 2.019874e-04 -1.298629e-04 4.879682e-05 5.384960e-05
          1.346058e-05 2.832265e-05 3.503357e-05 1.653254e-05 -6.075828e-06 -7.575474e-05
          -7.817552e-05 -1.767196e-05 2.570987e-06 -2.716486e-05 -5.361911e-05 -9.033830e-05
          3.688988e-06 1.611741e-06 7.832740e-06 -1.716398e-05 6.099776e-06 6.586265e-06
          5.685655e-05 1.160291e-04 4.380814e-05 -4.366309e-05 9.292449e-05 1.114188e-04
          1.049870e-04 1.126669e-04 6.830411e-05 1.174007e-04 8.740272e-05 8.121244e-05
          7.741454e-05 3.797973e-05 6.276202e-05 7.930138e-05 1.061640e-04 1.308381e-04
          5.788595e-05 1.548082e-06 -1.089887e-05 2.267083e-06 3.295557e-05 6.559547e-05
          9.016383e-05 1.702874e-04 2.118305e-04 -7.663043e-05 6.727243e-05 5.928603e-05
          2.238289e-05 3.592175e-05 4.200282e-05 2.552766e-05 5.639690e-06 -5.161681e-05
          -9.216192e-05 -1.301146e-04 -1.438497e-04 -1.249457e-04 -1.048865e-04 -7.073537e-05
          -7.220192e-05 2.939923e-05 1.886232e-05 9.594054e-06 -1.058904e-05 -1.237559e-06
          1.860331e-05 1.090309e-05 5.774635e-05 1.105327e-04 4.820308e-05 6.270938e-05
          6.928372e-05 6.328602e-05 8.289549e-05 1.731953e-05 3.817268e-05 4.259806e-05
          4.709013e-05 1.141151e-04 1.041336e-04 9.330291e-05 7.497011e-05 5.497946e-05
          7.672354e-05 9.024792e-05 9.585624e-05 8.707518e-05 6.442080e-05 3.768891e-05
          2.022278e-05 -2.491175e-05 -4.402738e-05 1.352330e-04 -2.339672e-05 -5.116190e-05
          -2.855782e-05 -3.657825e-05 -3.957985e-05 -2.818530e-05 -1.413167e-05 3.530244e-05
          -1.005055e-04 -9.765009e-05 -9.681237e-05 -9.871832e-05 -9.890412e-05 -9.563647e-05
          -5.633698e-05 1.399505e-05 9.974410e-06 -9.322048e-06 -1.218249e-05 -1.062643e-05
          -3.057797e-06 4.424924e-07 -3.935734e-06 -6.932866e-06 4.542638e-05 9.452856e-05
          9.882175e-05 9.812906e-05 7.767986e-05 5.050679e-06 3.492734e-07 2.481244e-07
          4.188654e-06 8.640903e-05 9.997005e-05 1.004183e-04 9.966378e-05 9.266671e-05
          4.168585e-05 -2.381336e-06 -6.118801e-06 -5.787190e-06 -5.116260e-06 -4.643404e-06
          -2.290458e-06 6.430228e-06 2.058799e-05 2.672935e-05 1.274108e-05 -9.326225e-06
          -1.432288e-05 -1.427885e-05 -1.420844e-05 -1.468498e-05 -1.493400e-05 -9.344009e-06
          -1.209334e-04 1.593631e-05 6.345339e-05 -5.456505e-06 -6.970503e-05 -1.631614e-04
          1.711492e-05 -2.205334e-05 -3.990294e-06 -5.221732e-05 2.478595e-06 -1.212649e-05
          1.139854e-05 8.836781e-05 -8.050058e-05 -2.719511e-04 9.563462e-05 1.959456e-04
          1.868727e-04 2.042199e-04 7.839561e-05 8.742692e-05 8.019933e-06 -6.602630e-06
          -9.983977e-06 8.847679e-06 8.210791e-05 1.196561e-04 1.787163e-04 2.248609e-04
          -1.101184e-06 -1.798938e-04 -2.109271e-04 -1.807340e-04 -1.063910e-04 -2.279406e-05
          3.943435e-05 2.219380e-04 3.301620e-04 -2.739394e-04 1.396943e-04 1.375136e-04
          4.793294e-05 7.637221e-05 8.804522e-05 4.932751e-05 2.775970e-06 -1.346618e-04
          -5.182092e-05 -1.712047e-04 -2.122813e-04 -1.529580e-04 -9.537424e-05 -6.100628e-06
          -1.136784e-04 2.399398e-05 -5.040973e-06 1.753815e-06 -5.356772e-05 -3.731832e-05
          -4.381826e-05 -1.065264e-04 4.062869e-05 2.114822e-04 -2.625077e-05 -2.738419e-05
          -1.143522e-05 -2.855546e-05 4.694189e-05 -9.735030e-05 -3.399705e-05 -2.086901e-05
          -1.041759e-05 1.260334e-04 8.492328e-05 5.175469e-05 -3.346511e-06 -5.817834e-05
          5.268191e-05 1.340363e-04 1.556748e-04 1.287611e-04 6.280249e-05 -1.088100e-05
          -6.189239e-05 -2.131323e-04 -2.864345e-04 2.751771e-04 -1.264002e-04 -1.683203e-04
          -9.803897e-05 -1.243740e-04 -1.349470e-04 -1.006313e-04 -5.873388e-05 7.678016e-05
          -9.799383e-05 1.536514e-04 2.409887e-04 1.154427e-04 -3.138853e-06 -1.797056e-04
          1.066693e-04 -6.245713e-05 -2.697299e-05 -9.463177e-05 1.047405e-05 -1.421331e-05
          4.666652e-05 2.027920e-04 -1.042698e-04 -4.585067e-04 1.412013e-04 2.461137e-04
          2.216202e-04 2.549972e-04 5.408373e-05 1.960891e-04 5.733652e-05 3.041002e-05
          1.737411e-05 -8.713583e-05 2.684956e-05 9.637532e-05 2.081221e-04 3.064029e-04
          -3.033017e-05 -2.906421e-04 -3.426625e-04 -2.868627e-04 -1.502237e-04 3.028620e-06
          1.147324e-04 4.428481e-04 6.215046e-04 -5.281980e-04 2.368003e-04 2.557822e-04
          9.601969e-05 1.494968e-04 1.717380e-04 1.005053e-04 1.438101e-05 -2.472081e-04
          -8.095024e-05 -7.876109e-05 -7.819122e-05 -7.863148e-05 -7.676637e-05 -7.016866e-05
          -4.084760e-05 -3.009042e-06 -1.580132e-05 -3.818812e-05 -4.200180e-05 -3.052661e-05
          3.488917e-05 7.571069e-05 7.773641e-05 7.397624e-05 7.725384e-05 7.679102e-05
          7.624245e-05 7.562964e-05 7.440968e-05 8.161288e-05 8.498340e-05 8.530211e-05
          8.512683e-05 8.112819e-05 8.132087e-05 8.188651e-05 8.265047e-05 8.359942e-05
          8.242654e-05 8.137507e-05 8.066110e-05 8.059881e-05 7.874484e-05 7.506848e-05
          7.445437e-05 7.895676e-05 7.952100e-05 5.258939e-05 -1.342372e-05 -4.508494e-05
          -4.794506e-05 -4.713539e-05 -4.590309e-05 -4.543129e-05 -4.472268e-05 -3.537336e-05
          -9.965677e-05 -8.066640e-05 -7.398966e-05 -8.259440e-05 -8.810041e-05 -9.179200e-05
          -4.293770e-05 -1.826206e-05 -3.510139e-05 -6.904398e-05 -6.723000e-05 -5.380250e-05
          3.527660e-05 9.874294e-05 8.242109e-05 5.579969e-05 9.819475e-05 1.036975e-04
          1.015188e-04 1.026719e-04 8.766624e-05 1.057810e-04 1.013028e-04 9.983747e-05
          9.884226e-05 8.711206e-05 9.489863e-05 1.001468e-04 1.083524e-04 1.159842e-04
          9.293269e-05 7.511675e-05 7.104555e-05 7.448859e-05 8.102434e-05 8.687461e-05
          9.381240e-05 1.201916e-04 1.318641e-04 2.313455e-05 -1.294834e-05 -5.412219e-05
          -6.903671e-05 -6.502008e-05 -6.195979e-05 -6.585258e-05 -7.046198e-05 -7.501843e-05
          -2.996210e-05 -2.579916e-05 -2.384865e-05 -2.515002e-05 -2.521674e-05 -2.374033e-05
          -1.880095e-05 -3.033417e-05 -4.680163e-05 -6.605300e-05 -6.804059e-05 -5.774387e-05
          2.830968e-06 4.260754e-05 4.384157e-05 3.959260e-05 3.853168e-05 2.882595e-05
          2.717287e-05 2.684264e-05 2.614586e-05 4.684234e-05 4.936711e-05 4.920071e-05
          4.826092e-05 2.881058e-05 2.816800e-05 2.946795e-05 3.158674e-05 3.499811e-05
          3.989420e-05 4.491516e-05 4.480993e-05 4.516270e-05 4.521035e-05 4.514571e-05
          4.666467e-05 5.136110e-05 4.999217e-05 1.181262e-05 -3.751202e-05 -6.563009e-05
          -7.123952e-05 -7.080995e-05 -6.948775e-05 -6.962311e-05 -6.980943e-05 -6.483763e-05
          3.275464e-05 1.743121e-05 1.238882e-05 2.056217e-05 2.838411e-05 3.952832e-05
          9.769698e-06 -1.170445e-05 -1.904430e-05 -1.487543e-05 -2.107486e-05 -1.458695e-05
          1.108380e-05 2.125169e-05 4.316639e-05 6.415529e-05 -2.118856e-06 -3.965529e-05
          -4.125664e-05 -4.311626e-05 -1.951103e-05 2.170200e-05 3.449189e-05 3.617079e-05
          3.440335e-05 -1.348815e-05 -2.839703e-05 -3.244000e-05 -3.799650e-05 -3.871023e-05
          1.238994e-05 5.485873e-05 5.987171e-05 5.639013e-05 4.717680e-05 3.651301e-05
          2.854677e-05 6.142191e-06 -1.306220e-05 3.551848e-05 -3.383980e-05 -3.801596e-05