<?xml version="1.0"?>
<VTKFile type="RectilinearGrid" version="0.1" byte_order="LittleEndian">
  <RectilinearGrid WholeExtent="0 47 0 47 0 47">
    <Piece Extent="0 47 0 47 0 47">
      <PointData Scalars="concentration">
        <DataArray type="Float32" Name="concentration" NumberOfComponents="1" format="ascii">
          1.137442e-04 1.342588e-04 1.424140e-04 1.322208e-04 1.199464e-04 9.584131e-05
          6.323070e-05 -4.764574e-05 -4.513655e-05 -3.470118e-05 -2.243529e-05 -3.115484e-05
          -6.170991e-05 -6.916199e-05 -9.342700e-05 -1.184397e-04 -8.586224e-05 -9.570716e-05
          -9.960345e-05 -9.650141e-05 -1.082162e-04 -7.494496e-05 -8.783116e-05 -9.043109e-05
          -9.276025e-05 -1.284677e-04 -1.226518e-04 -1.163887e-04 -1.061361e-04 -9.512538e-05
          -1.063838e-04 -1.128093e-04 -1.151271e-04 -1.103481e-04 -9.649599e-05 -7.812880e-05
          -6.636768e-05 -4.444290e-05 -3.573090e-05 -1.269868e-04 -1.618543e-05 5.381979e-06
          -9.392532e-06 -5.833891e-06 -4.856234e-06 -1.135697e-05 -1.918538e-05 -4.980898e-05
          1.745793e-04 1.916949e-04 1.988459e-04 1.907198e-04 1.794545e-04 1.546603e-04
          9.477042e-05 -6.072628e-05 -5.805601e-05 -3.749405e-05 -2.465054e-05 -3.321151e-05
          -6.422392e-05 -7.202849e-05 -9.093925e-05 -1.113061e-04 -1.141684e-04 -1.542493e-04
          -1.606305e-04 -1.574069e-04 -1.558808e-04 -8.011847e-05 -8.902144e-05 -9.132236e-05
          -9.589027e-05 -1.799416e-04 -1.829593e-04 -1.773381e-04 -1.673197e-04 -1.528698e-04
          -1.313586e-04 -1.096629e-04 -1.093137e-04 -1.051944e-04 -9.271293e-05 -7.562662e-05
          -6.583638e-05 -5.146456e-05 -5.264978e-05 -1.410736e-04 -3.157039e-05 2.517383e-07
          -1.105171e-05 -7.936898e-06 -7.208929e-06 -1.284047e-05 -1.976641e-05 -5.127590e-05
          1.429774e-04 3.512980e-04 4.244524e-04 3.209802e-04 2.189793e-04 5.771066e-05
          2.063357e-04 -9.723389e-05 -5.918637e-05 -7.616772e-05 1.945662e-05 -1.052431e-05
          -9.169866e-06 9.423611e-05 -1.595415e-04 -4.512480e-04 -2.140412e-05 -5.517490e-06
          -3.250988e-05 -3.150441e-06 -1.441740e-04 7.792054e-05 -3.532062e-05 -5.825391e-05
          -7.485797e-05 -2.816856e-04 -2.046515e-04 -1.461590e-04 -5.017345e-05 4.290744e-05
          -1.672031e-04 -3.225552e-04 -3.603209e-04 -3.135701e-04 -1.967093e-04 -6.307618e-05
          3.019979e-05 2.920963e-04 4.214504e-04 -5.481385e-04 1.643221e-04 2.291409e-04
          1.000139e-04 1.444205e-04 1.620311e-04 1.019841e-04 2.904814e-05 -2.073779e-04
          1.357620e-04 -4.461536e-05 -1.069082e-04 -1.696750e-05 6.663986e-05 1.879112e-04
          -4.448174e-05 3.069020e-05 8.486034e-06 6.859066e-05 -4.335024e-06 8.716717e-06
          -6.046936e-05 -1.873346e-04 3.213152e-05 2.873236e-04 -1.521892e-04 -2.380552e-04
          -2.216160e-04 -2.450250e-04 -9.764557e-05 -1.858209e-04 -8.763398e-05 -6.849146e-05
          -5.988638e-05 -1.959872e-06 -8.606318e-05 -1.355088e-04 -2.149039e-04 -2.837582e-04
          -3.245686e-05 1.630048e-04 2.012585e-04 1.614961e-04 6.517514e-05 -4.177363e-05
          -1.207758e-04 -3.584319e-04 -4.894350e-04 3.370491e-04 -1.784174e-04 -1.765819e-04
          -6.190921e-05 -1.003812e-04 -1.169232e-04 -6.631677e-05 -5.117819e-06 1.759817e-04
          -5.047960e-05 9.345515e-05 1.423086e-04 6.901286e-05 -9.643071e-07 -1.065310e-04
          7.370107e-05 2.327861e-05 7.082425e-05 5.587772e-05 1.206443e-04 9.038183e-05
          3.254763e-05 6.305672e-05 -1.230163e-04 -3.282817e-04 4.527310e-05 1.379316e-04
          1.277974e-04 1.476406e-04 2.373731e-05 5.388895e-05 -3.381230e-05 -4.977211e-05
          -5.459410e-05 -6.159858e-05 1.102704e-05 5.046798e-05 1.132608e-04 1.638697e-04
          -5.897716e-05 -2.348607e-04 -2.668935e-04 -2.342154e-04 -1.532002e-04 -6.257721e-05
          1.607346e-06 1.921986e-04 3.050585e-04 -3.153862e-04 2.121206e-04 2.623102e-04
          1.755984e-04 2.064948e-04 2.177371e-04 1.756999e-04 1.248634e-04 -3.651473e-05
          -1.488516e-04 -2.151019e-06 4.726354e-05 -2.843791e-05 -9.942886e-05 -2.033425e-04
          2.050384e-05 5.460388e-05 1.064945e-04 7.965582e-05 1.430541e-04 1.086424e-04
          2.646617e-05 4.018960e-05 -1.536426e-04 -3.623984e-04 7.593732e-05 2.309173e-04
          2.265699e-04 2.459515e-04 9.760502e-05 3.383548e-05 -6.158996e-05 -7.786243e-05
          -7.767064e-05 1.977377e-05 1.091800e-04 1.488727e-04 2.102925e-04 2.518525e-04
          -3.462501e-05 -2.655471e-04 -3.022108e-04 -2.689130e-04 -1.862896e-04 -9.396253e-05
          -2.707953e-05 1.731484e-04 3.041666e-04 -2.958962e-04 2.479560e-04 2.883368e-04
          1.978591e-04 2.286549e-04 2.396000e-04 1.966030e-04 1.449118e-04 -1.443869e-05
          -5.936288e-05 -2.904556e-04 -3.713989e-04 -2.582313e-04 -1.496182e-04 1.612428e-05
          -1.826157e-04 1.173713e-04 9.702477e-05 1.467606e-04 4.715547e-05 5.842473e-05
          -6.770401e-05 -2.600321e-04 1.225876e-05 3.386907e-04 -1.042923e-04 -8.754963e-05
          -5.390561e-05 -8.574074e-05 5.783736e-05 -2.506313e-04 -1.364860e-04 -1.118901e-04
          -9.027978e-05 2.012116e-04 1.252261e-04 6.063755e-05 -4.660908e-05 -1.557925e-04
          4.265597e-05 1.852603e-04 2.255940e-04 1.745994e-04 5.046553e-05 -8.855271e-05
          -1.878031e-04 -4.787956e-04 -6.127662e-04 5.105399e-04 -1.504943e-04 -1.744613e-04
          -3.089342e-05 -8.121072e-05 -1.032005e-04 -3.848017e-05 4.038654e-05 2.852044e-04
          -4.643397e-05 2.657648e-04 3.735731e-04 2.166397e-04 6.643298e-05 -1.613792e-04
          1.788264e-04 -4.507046e-05 2.363932e-05 -2.896246e-05 1.080367e-04 6.071688e-05
          4.264813e-05 1.786788e-04 -2.107806e-04 -6.516377e-04 9.934567e-05 2.368602e-04
          2.078649e-04 2.502534e-04 4.076446e-07 1.625287e-04 -1.625653e-05 -5.042271e-05
          -6.601587e-05 -1.848168e-04 -4.185131e-05 4.436356e-05 1.830772e-04 3.037545e-04
          -1.203231e-04 -4.491194e-04 -5.140172e-04 -4.439980e-04 -2.708327e-04 -7.579145e-05
          6.356241e-05 4.701430e-04 6.953934e-04 -7.042899e-04 3.452269e-04 4.160625e-04
          2.222179e-04 2.887341e-04 3.148429e-04 2.249976e-04 1.163441e-04 -2.240107e-04
          1.080035e-04 6.811080e-05 5.468839e-05 7.455182e-05 9.153292e-05 1.125216e-04
          2.987815e-05 -8.823315e-06 -1.001668e-05 1.721915e-05 4.204237e-06 2.417156e-06
          -3.757134e-05 -7.954003e-05 -3.142683e-05 2.596673e-05 -8.828090e-05 -1.256947e-04
          -1.238445e-04 -1.285147e-04 -8.947031e-05 -8.314599e-05 -6.192890e-05 -5.797758e-05
          -5.750456e-05 -7.529204e-05 -9.823184e-05 -1.088324e-04 -1.253478e-04 -1.375335e-04
          -6.441329e-05 -5.745437e-06 4.174104e-06 -4.381814e-06 -2.402151e-05 -4.474662e-05
          -6.143767e-05 -1.170699e-04 -1.509177e-04 3.045527e-05 -4.923262e-05 -3.066769e-05
          -4.682285e-06 -1.321257e-05 -1.735925e-05 -6.679754e-06 6.263565e-06 3.890144e-05
          1.731116e-04 1.947487e-04 2.033262e-04 1.933887e-04 1.809287e-04 1.552108e-04
          1.023179e-04 -6.181627e-05 -6.086441e-05 -4.266672e-05 -2.811363e-05 -3.212532e-05
          -3.280373e-05 -1.871060e-05 -4.117940e-05 -6.985157e-05 -8.582466e-05 -1.488582e-04
          -1.581664e-04 -1.540289e-04 -1.463323e-04 -2.624840e-05 -3.370311e-05 -3.631526e-05
          -4.329139e-05 -1.740375e-04 -1.817849e-04 -1.748917e-04 -1.618228e-04 -1.413908e-04
          -1.010059e-04 -6.256002e-05 -6.181372e-05 -5.681829e-05 -4.301054e-05 -2.565504e-05
          -1.567441e-05 3.516583e-06 -5.407415e-07 -1.289004e-04 -3.100174e-05 -2.536036e-06
          -1.506465e-05 -1.025181e-05 -8.482635e-06 -1.506257e-05 -2.318367e-05 -5.805489e-05
          2.440571e-04 2.761932e-04 2.890640e-04 2.749763e-04 2.576908e-04 2.227739e-04
          1.460095e-04 -1.039995e-04 -1.112058e-04 -9.277782e-05 -7.291338e-05 -7.135131e-05
          -2.926307e-05 1.900801e-05 -1.061536e-05 -5.378314e-05 -9.590652e-05 -2.087508e-04
          -2.246433e-04 -2.185464e-04 -2.004750e-04 1.012291e-05 3.400810e-06 -1.798913e-07
          -1.221476e-05 -2.399986e-04 -2.564907e-04 -2.462160e-04 -2.261422e-04 -1.925177e-04
          -1.136843e-04 -4.020971e-05 -3.797497e-05 -3.085234e-05 -1.195619e-05 1.129195e-05
          2.489525e-05 5.254099e-05 4.117176e-05 -1.693135e-04 -6.556286e-05 -3.782772e-05
          -5.671880e-05 -4.929351e-05 -4.584184e-05 -5.499976e-05 -6.643443e-05 -1.133936e-04
          2.846668e-04 2.903635e-04 2.944866e-04 2.946036e-04 2.907150e-04 2.755650e-04
          1.510524e-04 -1.265633e-04 -1.483920e-04 -1.271316e-04 -1.190061e-04 -1.064488e-04
          -2.106163e-05 4.339912e-05 5.157163e-05 4.549662e-05 -9.832351e-05 -2.629460e-04
          -2.805174e-04 -2.777445e-04 -2.243988e-04 3.623767e-05 5.037622e-05 4.989277e-05
          3.579894e-05 -2.510286e-04 -2.897764e-04 -2.865445e-04 -2.765396e-04 -2.464362e-04
          -9.255295e-05 4.280308e-05 5.315864e-05 5.410807e-05 5.723111e-05 6.243806e-05
          6.298638e-05 5.282206e-05 1.146112e-05 -1.089116e-04 -1.270834e-04 -1.119944e-04
          -1.142313e-04 -1.119844e-04 -1.099479e-04 -1.110123e-04 -1.128247e-04 -1.296256e-04
          3.197705e-04 3.143076e-04 3.149987e-04 3.216818e-04 3.239014e-04 3.174549e-04
          1.617689e-04 -1.539685e-04 -1.882918e-04 -1.683997e-04 -1.656541e-04 -1.441767e-04
          -1.517510e-05 7.270166e-05 9.995725e-05 1.098822e-04 -9.614458e-05 -3.029108e-04
          -3.232769e-04 -3.219458e-04 -2.467942e-04 6.680458e-05 9.295168e-05 9.388676e-05
          7.721581e-05 -2.689121e-04 -3.220714e-04 -3.216696e-04 -3.151271e-04 -2.831484e-04
          -7.795100e-05 1.006639e-04 1.158277e-04 1.139997e-04 1.097569e-04 1.065923e-04
          1.011289e-04 7.314231e-05 1.330953e-05 -8.407500e-05 -1.749694e-04 -1.712686e-04
          -1.668739e-04 -1.666728e-04 -1.647784e-04 -1.621013e-04 -1.595641e-04 -1.621065e-04
          2.990659e-04 3.632336e-04 3.884339e-04 3.604584e-04 3.296880e-04 2.737841e-04
          1.903723e-04 -1.844151e-04 -2.129705e-04 -2.146324e-04 -1.832802e-04 -1.679872e-04
          -1.844524e-05 1.150103e-04 5.843354e-05 -2.828327e-05 -6.611872e-05 -2.417982e-04
          -2.687958e-04 -2.584507e-04 -2.406130e-04 1.075881e-04 9.532662e-05 8.879444e-05
          6.873573e-05 -3.011518e-04 -3.218089e-04 -3.021111e-04 -2.647601e-04 -2.058597e-04
          -9.656278e-05 7.967658e-06 8.765744e-06 2.230400e-05 5.593834e-05 9.595767e-05
          1.221596e-04 1.845965e-04 1.741836e-04 -2.409570e-04 -1.239139e-04 -1.194216e-04
          -1.607639e-04 -1.461951e-04 -1.381345e-04 -1.551121e-04 -1.763202e-04 -2.501957e-04
          2.895911e-04 2.307955e-04 2.138646e-04 2.469788e-04 2.745791e-04 3.072489e-04
          9.537135e-05 -1.688133e-04 -2.252473e-04 -2.120696e-04 -2.358751e-04 -2.066782e-04
          -7.878334e-05 -1.837190e-05 7.633721e-05 1.662356e-04 -1.251347e-04 -3.112937e-04
          -3.226563e-04 -3.297030e-04 -2.309312e-04 -1.867785e-05 3.401080e-05 4.078431e-05
          3.070339e-05 -2.138918e-04 -2.789525e-04 -2.932980e-04 -3.123452e-04 -3.081578e-04
          -7.596663e-05 1.202607e-04 1.440995e-04 1.300932e-04 9.664503e-05 6.260462e-05
          3.672193e-05 -5.832432e-05 -1.467245e-04 1.672496e-05 -2.598394e-04 -2.883103e-04
          -2.569328e-04 -2.697687e-04 -2.727458e-04 -2.546568e-04 -2.331625e-04 -1.714420e-04
          2.309377e-04 3.411924e-04 3.828362e-04 3.311591e-04 2.781927e-04 1.902450e-04
          1.708333e-04 -2.011832e-04 -2.277650e-04 -2.541956e-04 -2.061447e-04 -1.984301e-04
          -5.776273e-05 8.978097e-05 -2.442570e-05 -1.723771e-04 -4.917552e-05 -1.526227e-04
          -1.790349e-04 -1.635758e-04 -2.040268e-04 8.338830e-05 4.012471e-05 2.858438e-05
          1.075756e-05 -2.829402e-04 -2.682337e-04 -2.359642e-04 -1.804136e-04 -1.121558e-04
          -1.181788e-04 -1.071893e-04 -1.190216e-04 -9.535415e-05 -3.599798e-05 3.452156e-05
          8.434316e-05 2.104225e-04 2.455724e-04 -3.508629e-04 -8.622765e-05 -9.213109e-05
          -1.676611e-04 -1.448511e-04 -1.333362e-04 -1.634981e-04 -2.003234e-04 -3.174875e-04
          2.216808e-04 1.732900e-04 1.592606e-04 1.858842e-04 2.079586e-04 2.342013e-04
          6.896160e-05 -1.247422e-04 -1.658637e-04 -1.532501e-04 -1.725564e-04 -1.529926e-04
          -7.404737e-05 -4.157714e-05 3.338565e-05 1.075040e-04 -1.103343e-04 -2.406174e-04
          -2.477436e-04 -2.534951e-04 -1.805146e-04 -4.227052e-05 -2.464647e-06 3.005321e-06
          -3.320067e-06 -1.651874e-04 -2.128899e-04 -2.248363e-04 -2.413969e-04 -2.416952e-04
          -7.308445e-05 6.892205e-05 8.704474e-05 7.564878e-05 4.897061e-05 2.211502e-05
          1.716885e-06 -7.461094e-05 -1.410695e-04 9.929428e-06 -1.957074e-04 -2.142079e-04
          -1.885476e-04 -1.994600e-04 -2.023802e-04 -1.878444e-04 -1.704210e-04 -1.209773e-04
          1.486647e-04 1.077994e-04 9.520520e-05 1.167000e-04 1.348361e-04 1.574180e-04
          4.408632e-05 -6.277196e-05 -8.361172e-05 -6.662797e-05 -8.182816e-05 -7.239758e-05
          -4.727358e-05 -4.704819e-05 1.016105e-05 7.057469e-05 -8.531578e-05 -1.655544e-04
          -1.684541e-04 -1.730083e-04 -1.205136e-04 -4.864954e-05 -1.992365e-05 -1.546050e-05
          -1.834743e-05 -1.064831e-04 -1.398873e-04 -1.503167e-04 -1.653805e-04 -1.705871e-04
          -5.626263e-05 3.876541e-05 5.184595e-05 4.254153e-05 2.097438e-05 -1.485490e-06
          -1.877605e-05 -7.973739e-05 -1.266866e-04 2.327102e-05 -1.152990e-04 -1.177505e-04
          -9.384413e-05 -1.028210e-04 -1.059383e-04 -9.423288e-05 -8.003583e-05 -4.142690e-05
          7.515833e-05 3.415691e-04 4.349558e-04 3.027472e-04 1.747978e-04 -2.195875e-05
          2.096701e-04 -1.109066e-04 -7.192487e-05 -1.163783e-04 1.209041e-06 -2.696735e-05
          3.151217e-05 1.978577e-04 -1.244597e-04 -4.996229e-04 6.173536e-05 9.435028e-05
          6.060204e-05 9.772660e-05 -8.714925e-05 1.832641e-04 4.135053e-05 1.254545e-05
          -7.721097e-06 -2.532588e-04 -1.520956e-04 -7.772832e-05 4.443805e-05 1.617899e-04
          -1.186388e-04 -3.277806e-04 -3.773728e-04 -3.181015e-04 -1.714288e-04 -5.768689e-06
          1.119932e-04 4.507134e-04 6.195538e-04 -6.315956e-04 2.122623e-04 2.635230e-04
          9.731273e-05 1.544265e-04 1.780372e-04 1.020741e-04 1.006181e-05 -2.804789e-04
          1.469927e-04 2.478788e-05 -1.665573e-05 4.531877e-05 1.025974e-04 1.850323e-04
          -8.083105e-07 -1.808131e-05 -4.557439e-05 -6.788702e-06 -5.616923e-05 -3.806289e-05
          -2.905848e-05 -7.759055e-05 7.745640e-05 2.499706e-04 -9.934916e-05 -2.123689e-04
          -2.071327e-04 -2.223751e-04 -1.036724e-04 -7.628794e-05 -2.272270e-06 1.097788e-05
          1.228112e-05 -4.293204e-05 -1.136661e-04 -1.467812e-04 -1.980721e-04 -2.353205e-04
          -1.199583e-05 1.667351e-04 1.962193e-04 1.689233e-04 1.024805e-04 2.828101e-05
          -2.660630e-05 -1.922060e-04 -2.957707e-04 2.247456e-04 -1.673962e-04 -1.750033e-04
          -9.729177e-05 -1.228351e-04 -1.329708e-04 -9.816450e-05 -5.604595e-05 6.791513e-05
          1.745982e-04 1.639628e-04 1.601859e-04 1.681343e-04 1.746794e-04 1.808444e-04
          1.091500e-04 -3.438378e-05 -4.093906e-05 -1.471323e-05 -1.384674e-05 2.827545e-06
          9.741045e-05 1.583159e-04 1.814038e-04 1.895294e-04 5.626979e-06 -1.643831e-04
          -1.796919e-04 -1.787370e-04 -1.068400e-04 1.539848e-04 1.791265e-04 1.805905e-04
          1.669453e-04 -1.209009e-04 -1.693751e-04 -1.715369e-04 -1.691817e-04 -1.458092e-04
          3.306706e-05 1.861016e-04 1.984628e-04 1.959459e-04 1.876146e-04 1.750138e-04
          1.627591e-04 1.362965e-04 8.669597e-05 3.575637e-05 -5.431765e-05 -3.603318e-05
          -1.982895e-05 -1.861796e-05 -1.725073e-05 -1.339327e-05 -9.414383e-06 -6.608163e-06
          2.010388e-04 2.601185e-04 2.798367e-04 2.543018e-04 2.294581e-04 1.883390e-04
          1.847484e-04 -4.754662e-05 -4.213195e-05 -2.307382e-05 9.346907e-06 2.708623e-05
          1.868349e-04 3.239087e-04 2.656601e-04 1.704781e-04 7.672823e-05 -1.425907e-04
          -1.720598e-04 -1.608865e-04 -1.129383e-04 3.160108e-04 3.125101e-04 3.066582e-04
          2.824781e-04 -1.749196e-04 -2.131219e-04 -1.958974e-04 -1.594917e-04 -9.598514e-05
          6.880433e-05 2.175665e-04 2.200605e-04 2.329808e-04 2.605549e-04 2.856281e-04
          2.992647e-04 3.587751e-04 3.393768e-04 -7.765794e-05 1.199091e-05 4.622923e-05
          2.473835e-05 4.295801e-05 5.178055e-05 3.643637e-05 1.667890e-05 -5.617715e-05
          2.717381e-04 4.160433e-06 -8.921290e-05 4.847505e-05 1.789918e-04 3.714206e-04
          9.801153e-06 2.111848e-05 -3.121837e-05 5.735438e-05 -5.062835e-05 5.428050e-06
          1.200886e-04 7.440700e-05 4.177999e-04 7.841244e-04 -7.202940e-05 -4.108207e-04
          -4.072759e-04 -4.401963e-04 -1.388899e-04 7.966967e-05 2.570834e-04 2.865529e-04
          2.808075e-04 -1.023491e-05 -1.918403e-04 -2.648653e-04 -3.743600e-04 -4.412969e-04
          1.434918e-04 6.155549e-04 6.844925e-04 6.246213e-04 4.734122e-04 2.978906e-04
          1.671688e-04 -1.975761e-04 -4.455603e-04 6.291323e-04 -3.163296e-04 -3.323552e-04
          -1.499110e-04 -2.015063e-04 -2.211988e-04 -1.434728e-04 -5.052620e-05 2.248683e-04
          1.807716e-04 4.254200e-04 5.094385e-04 3.910078e-04 2.771115e-04 1.007313e-04
          2.922745e-04 -8.861652e-05 -4.756892e-05 -6.323771e-05 4.984752e-05 4.217076e-05
          2.060959e-04 4.335547e-04 1.459627e-04 -2.103082e-04 1.354065e-04 -9.403047e-06
          -5.683140e-05 -2.059024e-05 -1.192576e-04 4.167386e-04 3.085095e-04 2.824445e-04
          2.483680e-04 -2.910212e-04 -2.458221e-04 -1.772206e-04 -5.825368e-05 7.815118e-05
          -2.419293e-06 -4.296975e-05 -7.847600e-05 -2.404635e-05 1.060129e-04 2.468895e-04
          3.434115e-04 6.436121e-04 7.556505e-04 -4.996976e-04 1.999553e-04 2.701792e-04
          1.325362e-04 1.900660e-04 2.146352e-04 1.461689e-04 6.200364e-05 -2.113940e-04
          1.451589e-04 1.338373e-04 1.287715e-04 1.364027e-04 1.430286e-04 1.497347e-04
          1.013268e-04 1.006792e-05 1.868361e-05 5.391348e-05 5.586772e-05 6.574870e-05
          1.192168e-04 1.528028e-04 1.712997e-04 1.782594e-04 1.250067e-05 -1.357079e-04
          -1.482394e-04 -1.473485e-04 -8.037522e-05 1.470927e-04 1.688425e-04 1.701492e-04
          1.581798e-04 -9.421170e-05 -1.382253e-04 -1.409211e-04 -1.400883e-04 -1.208998e-04
          3.906137e-05 1.750200e-04 1.857957e-04 1.835021e-04 1.753914e-04 1.622231e-04
          1.488743e-04 1.240934e-04 8.094645e-05 5.373831e-05 -3.275059e-06 3.140448e-05
          5.125949e-05 5.270851e-05 5.346725e-05 5.711655e-05 6.066528e-05 6.051752e-05
          1.063818e-04 5.665913e-05 3.751440e-05 6.283962e-05 8.647212e-05 1.195356e-04
          5.935056e-05 6.905256e-05 8.917403e-05 1.407989e-04 1.275982e-04 1.299883e-04
          1.077978e-04 7.369667e-05 1.310372e-04 1.912729e-04 -1.360942e-05 -1.222894e-04
          -1.254437e-04 -1.297254e-04 -5.081910e-05 6.798530e-05 1.025195e-04 1.076293e-04
          1.022979e-04 -3.996145e-05 -8.766763e-05 -1.014728e-04 -1.200580e-04 -1.251416e-04
          3.276682e-05 1.616810e-04 1.766185e-04 1.662252e-04 1.388993e-04 1.041270e-04
          7.497667e-05 5.164923e-06 -4.968445e-05 1.397789e-04 2.030206e-05 6.733297e-05
          1.126712e-04 1.055689e-04 1.018507e-04 1.155586e-04 1.315073e-04 1.677976e-04
          9.568198e-05 2.455677e-04 2.954670e-04 2.212484e-04 1.496686e-04 3.852304e-05
          1.867871e-04 2.569500e-05 8.360437e-05 9.981882e-05 1.738962e-04 1.524807e-04
          1.567141e-04 2.344607e-04 4.658809e-05 -1.760107e-04 6.671510e-05 1.202520e-05
          -1.313561e-05 9.965302e-06 -5.846154e-05 2.191052e-04 1.444907e-04 1.279743e-04
          1.097475e-04 -1.678631e-04 -1.329854e-04 -9.153656e-05 -2.014181e-05 5.758592e-05
          -2.208501e-05 -7.433266e-05 -9.876276e-05 -6.460753e-05 1.751141e-05 1.053469e-04
          1.636782e-04 3.513947e-04 4.315313e-04 -2.987021e-04 2.211701e-04 3.075908e-04
          2.299521e-04 2.658976e-04 2.796725e-04 2.364348e-04 1.832992e-04 3.643123e-06
          1.440796e-04 2.921744e-05 -1.257273e-05 4.540753e-05 9.978571e-05 1.783545e-04
          4.039450e-05 8.466200e-05 9.616646e-05 1.677993e-04 1.279011e-04 1.373018e-04
          1.036464e-04 3.222306e-05 1.694568e-04 3.207716e-04 -5.002227e-05 -1.969968e-04
          -1.949612e-04 -2.076508e-04 -7.234905e-05 2.779634e-05 9.934939e-05 1.114664e-04
          1.085731e-04 -2.649470e-05 -1.067219e-04 -1.384702e-04 -1.854656e-04 -2.142030e-04
          4.208320e-05 2.479458e-04 2.770333e-04 2.521938e-04 1.894147e-04 1.145757e-04
          5.597819e-05 -9.961007e-05 -2.034446e-04 2.774402e-04 -4.154259e-05 3.264165e-06
          9.081865e-05 7.018802e-05 6.082169e-05 9.298688e-05 1.312136e-04 2.342169e-04
          4.992954e-05 1.954125e-04 2.437470e-04 1.714033e-04 1.023005e-04 -3.585077e-06
          1.566304e-04 3.401527e-05 8.961030e-05 9.847194e-05 1.689034e-04 1.478594e-04
          1.493741e-04 2.220685e-04 3.868901e-05 -1.770092e-04 8.094941e-05 5.131256e-05
          2.921911e-05 5.117000e-05 -2.394008e-05 2.088525e-04 1.345075e-04 1.185066e-04
          1.027969e-04 -1.258614e-04 -8.600298e-05 -4.595743e-05 2.235734e-05 9.390678e-05
          -6.545294e-06 -7.738500e-05 -1.026463e-04 -6.954765e-05 9.955185e-06 9.491760e-05
          1.521047e-04 3.366714e-04 4.205123e-04 -2.773422e-04 2.227424e-04 2.988745e-04
          2.222621e-04 2.568965e-04 2.701316e-04 2.282003e-04 1.767932e-04 5.581417e-06
          9.999952e-05 3.655893e-05 1.321104e-05 4.532645e-05 7.532447e-05 1.180055e-04
          3.843598e-05 5.392858e-05 6.462070e-05 1.112207e-04 9.063068e-05 9.522837e-05
          7.413101e-05 3.378448e-05 1.090953e-04 1.911821e-04 -2.935509e-05 -1.267008e-04
          -1.270378e-04 -1.336560e-04 -5.191537e-05 2.990746e-05 7.063943e-05 7.727532e-05
          7.424815e-05 -2.989928e-05 -7.874418e-05 -9.625051e-05 -1.215062e-04 -1.347411e-04
          2.340272e-05 1.512151e-04 1.681920e-04 1.545868e-04 1.199749e-04 7.811853e-05
          4.466841e-05 -4.234499e-05 -1.033714e-04 1.555085e-04 -1.382037e-05 2.013111e-05
          7.069828e-05 5.989238e-05 5.477921e-05 7.245436e-05 9.336367e-05 1.472957e-04
          1.179195e-04 1.821931e-04 2.041181e-04 1.729690e-04 1.417305e-04 9.058753e-05
          1.198418e-04 -1.919070e-05 1.345658e-06 1.582680e-05 4.939406e-05 4.224103e-05
          5.801953e-05 1.021780e-04 2.482048e-05 -7.004775e-05 -3.481811e-06 -6.683017e-05
          -8.164124e-05 -7.118030e-05 -8.672763e-05 9.334557e-05 6.501390e-05 5.793178e-05
          4.683423e-05 -1.400142e-04 -1.349143e-04 -1.167015e-04 -8.423793e-05 -4.431353e-05
          -3.991956e-05 -2.863411e-05 -3.628822e-05 -2.167187e-05 1.384814e-05 5.244566e-05
          7.716456e-05 1.532540e-04 1.768013e-04 -1.572782e-04 6.410247e-05 1.076406e-04
          7.477881e-05 9.042586e-05 9.656428e-05 7.806349e-05 5.516544e-05 -2.557683e-05
          5.961290e-05 1.188646e-04 1.399245e-04 1.109083e-04 8.200500e-05 3.595871e-05
          6.790213e-05 -4.183070e-05 -3.530693e-05 -4.088307e-05 -1.376992e-05 -1.962090e-05
          -3.073422e-06 3.709580e-05 -3.300995e-05 -1.157368e-04 -8.241968e-06 -1.945158e-05
          -2.877335e-05 -2.027069e-05 -5.523076e-05 3.253161e-05 2.438528e-06 -3.969118e-06
          -9.989770e-06 -9.547479e-05 -7.745264e-05 -6.066763e-05 -3.266126e-05 -3.629072e-06
          -4.821137e-05 -7.918361e-05 -8.879695e-05 -7.562379e-05 -4.271174e-05 -4.937510e-06
          2.135486e-05 9.432844e-05 1.267024e-04 -1.601270e-04 3.021941e-05 4.566380e-05
          8.695600e-06 2.138838e-05 2.667753e-05 9.794629e-06 -1.083580e-05 -7.759981e-05
          3.021444e-05 -8.533558e-06 -2.056255e-05 -1.101287e-06 1.628797e-05 4.090826e-05
          -2.873350e-05 -4.298697e-05 -6.483818e-05 -6.776727e-05 -8.646919e-05 -8.150081e-05
          -8.506347e-05 -1.058052e-04 -5.493652e-05 5.807665e-06 -6.312460e-05 -5.649963e-05
          -5.094019e-05 -5.686426e-05 -3.879167e-05 -1.030796e-04 -8.390565e-05 -7.967074e-05
          -7.539814e-05 -1.281542e-05 -2.276216e-05 -3.307626e-05 -5.107590e-05 -6.994775e-05
          -4.363012e-05 -2.446797e-05 -1.712575e-05 -2.602542e-05 -4.629178e-05 -6.601030e-05
          -7.917717e-05 -1.302627e-04 -1.540872e-04 3.292553e-05 -9.354614e-05 -1.161475e-04
          -9.879300e-05 -1.089365e-04 -1.127368e-04 -1.016338e-04 -8.803359e-05 -4.320664e-05
          -8.053645e-06 -6.210602e-06 -3.669637e-06 -4.934565e-06 -7.292261e-06 -1.196654e-05
          -3.398420e-05 -6.344620e-05 -8.361172e-05 -1.052190e-04 -1.085279e-04 -1.101316e-04
          -1.204334e-04 -1.275062e-04 -1.268972e-04 -1.201220e-04 -5.750907e-05 1.852770e-06
          6.874742e-06 5.671469e-06 -2.367302e-05 -1.247136e-04 -1.320145e-04 -1.321998e-04
          -1.268716e-04 -1.593415e-05 2.506139e-06 3.389592e-06 1.927069e-06 -6.925365e-06
          -7.154846e-05 -1.255013e-04 -1.285613e-04 -1.284910e-04 -1.259512e-04 -1.185370e-04
          -1.110744e-04 -1.072615e-04 -9.378424e-05 -7.154449e-05 -6.556531e-05 -9.387921e-05
          -1.062105e-04 -1.089786e-04 -1.097139e-04 -1.102480e-04 -1.104956e-04 -1.052992e-04
          -1.006178e-04 3.468680e-05 8.307018e-05 1.433290e-05 -5.147609e-05 -1.496733e-04
          2.347158e-06 -6.600413e-05 -5.779974e-05 -1.133394e-04 -6.064455e-05 -8.184325e-05
          -9.848172e-05 -4.840699e-05 -2.155474e-04 -3.970804e-04 1.856997e-05 1.705847e-04
          1.665318e-04 1.828070e-04 3.425062e-05 -4.949286e-05 -1.355267e-04 -1.502107e-04
          -1.487439e-04 -3.021809e-05 5.790123e-05 9.529823e-05 1.515156e-04 1.886653e-04
          -9.034873e-05 -3.136370e-04 -3.467675e-04 -3.168793e-04 -2.410003e-04 -1.513130e-04
          -8.383799e-05 9.747767e-05 2.160198e-04 -3.455335e-04 9.629388e-05 8.504374e-05
          -1.163371e-05 1.363989e-05 2.406070e-05 -1.469777e-05 -6.106590e-05 -1.957966e-04
          -1.292347e-04 -2.500277e-04 -2.911320e-04 -2.325413e-04 -1.757085e-04 -8.643160e-05
          -1.742967e-04 2.853267e-05 -1.563367e-06 -8.488332e-06 -6.736603e-05 -6.040019e-05
          -1.249218e-04 -2.280988e-04 -8.411145e-05 9.433897e-05 -5.438349e-05 3.981880e-05
          6.538005e-05 4.658902e-05 8.525922e-05 -2.166744e-04 -1.639877e-04 -1.509703e-04
          -1.321711e-04 1.762362e-04 1.603630e-04 1.264657e-04 6.662684e-05 -4.509292e-06
          1.185112e-05 1.197904e-05 2.826523e-05 1.138778e-06 -6.374234e-05 -1.331939e-04
          -1.794334e-04 -3.260957e-04 -3.765855e-04 2.499019e-04 -1.195293e-04 -1.742192e-04
          -1.101177e-04 -1.393728e-04 -1.514283e-04 -1.172538e-04 -7.519928e-05 6.646632e-05
          -2.016397e-04 4.772702e-05 1.339923e-04 7.886548e-06 -1.107092e-04 -2.850640e-04
          3.988784e-05 -2.658501e-05 1.653354e-05 -6.042872e-05 4.142577e-05 5.596347e-06
          -3.453895e-06 1.037926e-04 -2.081541e-04 -5.560737e-04 1.343164e-04 3.390263e-04
          3.250630e-04 3.567155e-04 1.199607e-04 9.905140e-05 -5.056328e-05 -7.758711e-05
          -8.199963e-05 -8.883930e-06 1.303737e-04 1.986370e-04 3.050134e-04 3.856434e-04
          -4.762194e-05 -3.917697e-04 -4.495299e-04 -3.940484e-04 -2.569798e-04 -1.014831e-04
          1.320330e-05 3.463770e-04 5.494940e-04 -5.267758e-04 2.768141e-04 2.907128e-04
          1.281061e-04 1.791958e-04 1.997875e-04 1.285590e-04 4.268803e-05 -2.131636e-04
          -1.089210e-04 -1.126922e-04 -1.139146e-04 -1.137633e-04 -1.131501e-04 -1.100076e-04
          -7.616848e-05 2.452578e-05 2.748199e-05 1.347094e-05 8.470797e-06 -2.101814e-06
          -7.041781e-05 -1.194441e-04 -1.217338e-04 -1.116865e-04 -1.394403e-05 9.581378e-05
          1.071850e-04 1.051287e-04 6.536899e-05 -1.164442e-04 -1.275611e-04 -1.273606e-04
          -1.175957e-04 8.070301e-05 1.083567e-04 1.068252e-04 1.004831e-04 8.038537e-05
          -2.530021e-05 -1.170373e-04 -1.229890e-04 -1.237342e-04 -1.239244e-04 -1.217912e-04
          -1.182450e-04 -1.148094e-04 -8.924456e-05 -4.573088e-06 2.534828e-05 1.311509e-05
          9.051095e-06 5.928889e-06 3.962171e-06 4.433629e-06 5.406622e-06 1.449743e-05
          9.678928e-06 2.150336e-05 2.569968e-05 1.851353e-05 1.026179e-05 -4.106014e-06
          5.980783e-06 1.190596e-05 2.627269e-05 3.448923e-05 4.161463e-05 2.644966e-05
          -5.176731e-05 -9.641531e-05 -1.175913e-04 -1.318109e-04 -5.663618e-05 -2.988645e-06
          7.463972e-07 2.444140e-06 -2.556136e-05 -1.001083e-04 -1.160699e-04 -1.177457e-04
          -1.140853e-04 -3.276852e-05 -1.446879e-05 -1.124868e-05 -7.815481e-06 -1.144536e-05
          -7.567031e-05 -1.296463e-04 -1.347915e-04 -1.317414e-04 -1.221614e-04 -1.093202e-04
          -1.006798e-04 -8.297537e-05 -6.175875e-05 -7.300304e-05 3.868202e-05 6.051799e-05
          5.176570e-05 5.302343e-05 5.249857e-05 4.808415e-05 4.287208e-05 2.338419e-05
          2.449471e-04 2.448667e-04 2.458617e-04 2.473625e-04 2.447463e-04 2.318817e-04
          1.329851e-04 -6.370087e-05 -6.316735e-05 -2.715096e-05 -1.927172e-05 -2.012901e-05
          -1.846445e-05 -1.136746e-05 -5.831455e-06 -5.459662e-06 -1.136928e-04 -2.278815e-04
          -2.392097e-04 -2.370129e-04 -1.958704e-04 -2.090514e-05 -1.261672e-05 -1.287411e-05
          -2.235732e-05 -2.184045e-04 -2.470894e-04 -2.459501e-04 -2.408729e-04 -2.220353e-04
          -1.104761e-04 -1.315977e-05 -5.235836e-06 -4.974288e-06 -2.963471e-06 8.042783e-07
          -5.020684e-07 -1.339803e-05 -4.353630e-05 -9.315912e-05 -5.721981e-05 -1.670953e-05
          -1.233100e-05 -1.148001e-05 -1.124947e-05 -1.163695e-05 -1.264928e-05 -3.002636e-05
          2.147316e-04 1.962333e-04 1.894584e-04 2.003939e-04 2.083369e-04 2.137181e-04
          1.251219e-04 -1.293781e-05 -4.944653e-06 4.107314e-05 4.204570e-05 4.677301e-05
          6.585676e-05 7.543691e-05 1.020200e-04 1.220320e-04 -5.766661e-05 -2.067100e-04
          -2.185274e-04 -2.182092e-04 -1.482468e-04 6.678400e-05 8.955046e-05 9.140354e-05
          8.022507e-05 -1.621996e-04 -2.079870e-04 -2.122859e-04 -2.144260e-04 -1.983527e-04