<?xml version="1.0"?>
<VTKFile type="RectilinearGrid" version="0.1" byte_order="LittleEndian">
  <RectilinearGrid WholeExtent="0 47 0 47 0 47">
    <Piece Extent="0 47 0 47 0 47">
      <PointData Scalars="concentration">
        <DataArray type="Float32" Name="concentration" NumberOfComponents="1" format="ascii">
          -2.219443e-06 3.905752e-05 5.308307e-05 3.330056e-05 1.489448e-05 -1.233769e-05
          3.410427e-05 -6.354501e-06 -2.697234e-07 -8.031118e-06 9.775296e-06 1.075660e-05
          5.055643e-05 9.582038e-05 4.753230e-05 -1.356959e-05 4.898677e-05 2.898569e-05
          2.178962e-05 2.774853e-05 9.723011e-06 9.457846e-05 7.686128e-05 7.261147e-05
          6.718262e-05 -1.669814e-05 -8.195623e-06 3.185306e-06 2.322190e-05 4.533577e-05
          2.753004e-05 1.684043e-05 1.039675e-05 1.944928e-05 4.070352e-05 6.289373e-05
          7.854345e-05 1.305214e-04 1.508244e-04 -6.257259e-05 4.006331e-05 4.505669e-05
          2.196987e-05 3.186066e-05 3.617401e-05 2.506117e-05 1.087579e-05 -3.240231e-05
          -4.977399e-05 -9.436864e-06 -2.997795e-06 -2.152878e-05 -3.417700e-05 -4.791974e-05
          1.089028e-04 2.323021e-04 3.117953e-04 3.684969e-04 3.976838e-04 3.987541e-04
          4.435818e-04 4.942112e-04 4.330360e-04 3.426218e-04 2.583592e-04 9.507917e-05
          7.589446e-05 8.602945e-05 1.426829e-04 4.849953e-04 4.829292e-04 4.787583e-04
          4.594832e-04 9.400604e-05 5.622903e-05 6.621492e-05 9.097232e-05 1.360528e-04
          2.755545e-04 3.949140e-04 3.941979e-04 4.044300e-04 4.203926e-04 4.216715e-04
          4.160448e-04 4.668688e-04 4.597325e-04 1.796166e-04 2.948239e-04 3.905798e-04
          4.040470e-04 4.235004e-04 4.300548e-04 4.190716e-04 4.036288e-04 3.405314e-04
          -9.711982e-05 1.307724e-04 1.997331e-04 8.738379e-05 -1.345394e-05 -1.588824e-04
          2.375582e-04 2.751143e-04 4.157294e-04 4.577621e-04 5.723010e-04 5.476000e-04
          5.982270e-04 7.419742e-04 4.437771e-04 7.888040e-05 3.943209e-04 2.625818e-04
          2.214209e-04 2.583723e-04 1.902163e-04 7.213756e-04 6.181893e-04 5.936017e-04
          5.600108e-04 2.380209e-05 5.589683e-05 1.173766e-04 2.271237e-04 3.531614e-04
          2.930385e-04 2.607999e-04 2.232058e-04 2.758335e-04 3.937268e-04 5.049850e-04
          5.761257e-04 8.708682e-04 9.888478e-04 -1.609678e-04 5.748412e-04 7.363068e-04
          6.444483e-04 7.069288e-04 7.302418e-04 6.654019e-04 5.844230e-04 3.121792e-04
          -3.855767e-06 -1.689323e-04 -2.337558e-04 -1.509892e-04 -6.802418e-05 6.085556e-05
          -3.912968e-06 2.965050e-04 3.522665e-04 4.624284e-04 4.053392e-04 4.185467e-04
          3.654891e-04 2.566967e-04 4.415560e-04 6.427555e-04 1.202036e-04 -7.522084e-05
          -6.953027e-05 -8.698916e-05 1.133229e-04 2.529585e-04 3.566822e-04 3.743441e-04
          3.703125e-04 1.843357e-04 6.749319e-05 2.067900e-05 -4.815896e-05 -9.207463e-05
          2.692689e-04 5.554023e-04 5.938684e-04 5.588023e-04 4.648751e-04 3.442141e-04
          2.502238e-04 3.674060e-05 -1.024852e-04 5.922026e-04 1.204342e-04 2.030589e-04
          3.443900e-04 3.190640e-04 3.064941e-04 3.528657e-04 4.074050e-04 5.573699e-04
          -2.901851e-05 1.284325e-04 1.812268e-04 1.013565e-04 2.512132e-05 -9.028579e-05
          1.067802e-04 4.395422e-05 1.041876e-04 9.952737e-05 1.727132e-04 1.401845e-04
          8.104961e-05 1.182081e-04 -8.605365e-05 -3.141474e-04 6.147803e-05 1.292026e-04
          1.149525e-04 1.375710e-04 1.668190e-05 1.061260e-04 1.352464e-05 -3.929629e-06
          -1.237395e-05 -8.212766e-05 -1.244923e-05 3.076066e-05 1.006169e-04 1.617292e-04
          -4.728211e-05 -2.100625e-04 -2.434053e-04 -2.074211e-04 -1.191297e-04 -2.201265e-05
          4.537108e-05 2.521510e-04 3.680686e-04 -3.275515e-04 2.530247e-04 3.229483e-04
          2.329327e-04 2.678761e-04 2.807309e-04 2.345735e-04 1.784620e-04 -2.387251e-06
          9.722942e-07 1.600576e-04 2.198940e-04 1.383995e-04 5.679151e-05 -7.061072e-05
          3.318772e-05 -1.673461e-04 -1.729557e-04 -2.375657e-04 -1.746724e-04 -2.072748e-04
          -2.707953e-04 -2.383096e-04 -4.322602e-04 -6.351382e-04 -1.203201e-04 8.218612e-05
          7.918283e-05 9.808251e-05 -9.262576e-05 -2.427632e-04 -3.502749e-04 -3.678645e-04
          -3.634435e-04 -1.707340e-04 -5.774875e-05 -1.308503e-05 5.263421e-05 9.247892e-05
          -2.644747e-04 -5.497645e-04 -5.888426e-04 -5.537493e-04 -4.603597e-04 -3.441752e-04
          -2.572832e-04 -4.778542e-05 9.486972e-05 -5.419766e-04 2.785577e-05 1.427305e-05
          -1.092771e-04 -8.281210e-05 -7.189489e-05 -1.183998e-04 -1.736062e-04 -3.365634e-04
          4.897311e-05 -1.686641e-04 -2.381352e-04 -1.305809e-04 -3.154288e-05 1.144807e-04
          -1.998579e-04 -1.357345e-04 -2.316766e-04 -2.414225e-04 -3.454374e-04 -3.226027e-04
          -3.745534e-04 -5.134909e-04 -2.368773e-04 9.609616e-05 -2.655942e-04 -1.991018e-04
          -1.642435e-04 -1.973126e-04 -9.995612e-05 -4.973232e-04 -3.925910e-04 -3.690336e-04
          -3.429436e-04 4.935151e-05 -1.385187e-06 -6.068867e-05 -1.632510e-04 -2.740610e-04
          -1.506645e-04 -6.583819e-05 -2.808093e-05 -7.765092e-05 -1.923537e-04 -3.087461e-04
          -3.869851e-04 -6.669896e-04 -7.895161e-04 2.792641e-04 -4.125272e-04 -5.225332e-04
          -4.170534e-04 -4.720268e-04 -4.932418e-04 -4.313521e-04 -3.552141e-04 -1.048010e-04
          -1.123002e-04 2.163813e-04 3.315525e-04 1.679620e-04 1.281984e-05 -2.185588e-04
          1.363659e-04 -1.206394e-04 -8.740151e-05 -1.852835e-04 -4.960855e-05 -7.813931e-05
          2.201472e-05 2.391313e-04 -1.580621e-04 -6.174696e-04 1.670006e-04 3.039329e-04
          2.721201e-04 3.152203e-04 4.975500e-05 2.317226e-04 5.143882e-05 1.632439e-05
          -5.340297e-07 -1.327497e-04 1.723406e-05 1.082217e-04 2.544347e-04 3.828970e-04
          -5.899226e-05 -4.000642e-04 -4.675715e-04 -3.950566e-04 -2.165745e-04 -1.483465e-05
          1.327880e-04 5.602731e-04 7.923665e-04 -7.143792e-04 2.651742e-04 2.745825e-04
          6.168868e-05 1.304621e-04 1.596705e-04 6.701715e-05 -4.524765e-05 -3.830595e-04
          -6.553815e-05 -8.884954e-05 -9.902186e-05 -8.581326e-05 -7.002215e-05 -4.131603e-05
          -1.769690e-05 6.049934e-05 6.130787e-05 6.413482e-05 5.317144e-05 7.124068e-05
          1.564539e-04 1.993376e-04 2.309105e-04 2.533572e-04 1.306589e-04 5.331932e-05
          4.958312e-05 4.715272e-05 9.643019e-05 2.036920e-04 2.290225e-04 2.321424e-04
          2.270330e-04 1.089540e-04 7.798270e-05 7.117147e-05 6.333092e-05 6.525322e-05
          1.675718e-04 2.512411e-04 2.589888e-04 2.535133e-04 2.358481e-04 2.096485e-04
          1.906322e-04 1.601842e-04 1.285445e-04 1.795993e-04 2.174658e-05 1.159500e-05
          3.586858e-05 3.448951e-05 3.464562e-05 4.270733e-05 5.161751e-05 8.206572e-05
          -7.771599e-05 -4.340948e-05 -3.623115e-05 -5.116900e-05 -6.059383e-05 -6.853989e-05
          5.068094e-05 1.261326e-04 1.613510e-04 1.759240e-04 1.942185e-04 2.077652e-04
          3.165060e-04 4.030318e-04 3.603127e-04 2.900496e-04 2.333957e-04 1.085841e-04
          9.297430e-05 1.000046e-04 1.375273e-04 4.019478e-04 4.030550e-04 4.000022e-04
          3.851569e-04 1.065122e-04 7.993970e-05 8.876660e-05 1.091865e-04 1.453511e-04
          2.466174e-04 3.343376e-04 3.334782e-04 3.412630e-04 3.530151e-04 3.542684e-04
          3.525780e-04 3.955354e-04 3.899957e-04 1.415000e-04 1.619046e-04 1.929168e-04
          1.946540e-04 2.093747e-04 2.156664e-04 2.074357e-04 1.960386e-04 1.574387e-04
          -5.260104e-05 -1.589580e-05 -8.586257e-06 -2.447618e-05 -3.474515e-05 -4.468296e-05
          7.627249e-05 1.422416e-04 1.854536e-04 2.105751e-04 2.321470e-04 2.452804e-04
          3.552929e-04 4.448656e-04 3.984056e-04 3.216755e-04 2.420606e-04 8.905830e-05
          7.049821e-05 7.855269e-05 1.270821e-04 4.415807e-04 4.440290e-04 4.407000e-04
          4.230365e-04 8.944765e-05 5.560906e-05 6.516108e-05 8.775039e-05 1.296789e-04
          2.579985e-04 3.689042e-04 3.691512e-04 3.776396e-04 3.904021e-04 3.914775e-04
          3.885243e-04 4.329648e-04 4.225117e-04 1.495936e-04 1.834076e-04 2.291386e-04
          2.336161e-04 2.499784e-04 2.567733e-04 2.477803e-04 2.353204e-04 1.899027e-04
          3.583420e-05 3.673103e-05 3.678274e-05 3.800590e-05 3.978242e-05 4.233028e-05
          2.921174e-05 -1.961464e-05 -2.869893e-05 -2.978228e-05 -2.943694e-05 -1.710182e-05
          5.700979e-05 1.061530e-04 1.118965e-04 1.076200e-04 4.049844e-05 -3.115044e-05
          -3.818317e-05 -3.753504e-05 -1.083526e-05 1.068516e-04 1.170649e-04 1.174274e-04
          1.110318e-04 -1.621249e-05 -3.489611e-05 -3.428748e-05 -3.102174e-05 -1.877963e-05
          5.170286e-05 1.124851e-04 1.166804e-04 1.164671e-04 1.143134e-04 1.099110e-04
          1.063479e-04 1.027711e-04 8.467268e-05 2.979679e-05 -2.829320e-05 -3.607974e-05
          -3.354282e-05 -3.176503e-05 -3.015909e-05 -2.934721e-05 -2.891462e-05 -2.744803e-05
          1.148165e-04 9.883075e-05 9.755837e-05 1.064837e-04 1.116423e-04 1.141242e-04
          -1.614314e-06 -1.628980e-04 -2.137697e-04 -2.390450e-04 -2.507130e-04 -2.418916e-04
          -2.035169e-04 -1.856098e-04 -1.524556e-04 -1.137941e-04 -1.349614e-04 -1.288808e-04
          -1.271073e-04 -1.309556e-04 -1.349748e-04 -1.824403e-04 -1.739892e-04 -1.720242e-04
          -1.692318e-04 -1.210878e-04 -1.197667e-04 -1.230372e-04 -1.302344e-04 -1.384321e-04
          -1.384278e-04 -1.369158e-04 -1.322564e-04 -1.368184e-04 -1.438272e-04 -1.437459e-04
          -1.412970e-04 -1.681056e-04 -1.823481e-04 -1.103721e-04 -1.963608e-04 -2.459874e-04
          -2.540347e-04 -2.619571e-04 -2.637658e-04 -2.585431e-04 -2.519611e-04 -2.259018e-04
          9.831130e-05 1.506745e-04 1.723935e-04 1.475386e-04 1.211336e-04 7.675071e-05
          4.492429e-05 -1.590572e-04 -1.933102e-04 -2.284000e-04 -2.098586e-04 -2.064647e-04
          -1.428320e-04 -7.620751e-05 -1.269512e-04 -1.881899e-04 -7.474109e-05 -6.885746e-05
          -7.628365e-05 -7.050689e-05 -1.161414e-04 -7.609398e-05 -1.021181e-04 -1.074938e-04
          -1.108510e-04 -1.446737e-04 -1.206997e-04 -1.051937e-04 -8.088823e-05 -5.769107e-05
          -1.192515e-04 -1.631894e-04 -1.712030e-04 -1.604901e-04 -1.311267e-04 -9.197411e-05
          -6.192743e-05 -7.141754e-07 2.721352e-05 -2.286409e-04 -1.101179e-04 -1.437043e-04
          -1.907071e-04 -1.828276e-04 -1.781893e-04 -1.922014e-04 -2.091368e-04 -2.569527e-04
          6.631441e-05 -3.545006e-06 -2.728619e-05 1.002096e-05 4.600747e-05 9.976455e-05
          -6.550513e-06 -3.891009e-05 -7.353055e-05 -6.842650e-05 -1.001596e-04 -7.295542e-05
          3.014403e-05 6.466962e-05 1.625134e-04 2.598755e-04 1.081805e-05 -1.049257e-04
          -1.067972e-04 -1.161212e-04 -2.954575e-05 6.996321e-05 1.230320e-04 1.311689e-04
          1.274361e-04 7.181886e-06 -4.636711e-05 -6.519953e-05 -9.271243e-05 -1.057154e-04
          7.233236e-05 2.180297e-04 2.380401e-04 2.217055e-04 1.798248e-04 1.314206e-04
          9.692930e-05 -6.186200e-07 -7.413820e-05 1.768851e-04 -1.408950e-04 -1.752838e-04
          -1.310779e-04 -1.446265e-04 -1.487554e-04 -1.271191e-04 -1.015732e-04 -2.061483e-05
          5.355159e-06 1.049828e-04 1.380704e-04 9.121143e-05 4.875790e-05 -1.342654e-05
          9.767395e-05 -1.812465e-05 -8.344275e-06 -2.801271e-05 1.503744e-05 2.626791e-05
          1.763633e-04 3.211800e-04 2.089552e-04 5.875812e-05 1.607046e-04 6.261945e-05
          3.973209e-05 5.422266e-05 3.106113e-05 3.190027e-04 2.842060e-04 2.741346e-04
          2.566208e-04 -3.570208e-05 -2.864393e-05 -9.494248e-07 4.885014e-05 1.107466e-04
          1.185040e-04 1.361163e-04 1.234995e-04 1.451193e-04 1.938447e-04 2.428565e-04
          2.772775e-04 3.996515e-04 4.356219e-04 -1.145252e-04 8.625560e-05 9.296669e-05
          4.035316e-05 6.573027e-05 7.736498e-05 5.102999e-05 1.809092e-05 -8.407779e-05
          5.911521e-05 8.166764e-07 -1.981570e-05 1.142325e-05 4.212120e-05 8.803196e-05
          8.043271e-06 -8.124970e-06 -2.884542e-05 -1.613908e-05 -4.100760e-05 -1.819420e-05
          6.937872e-05 9.973093e-05 1.800484e-04 2.579218e-04 2.903358e-05 -8.852711e-05
          -9.197704e-05 -9.914887e-05 -1.678338e-05 1.028505e-04 1.493061e-04 1.561277e-04
          1.509787e-04 1.043166e-05 -4.074556e-05 -5.652045e-05 -7.863222e-05 -8.608732e-05
          8.493081e-05 2.253120e-04 2.429698e-04 2.294927e-04 1.939999e-04 1.513865e-04
          1.201184e-04 3.815646e-05 -2.755982e-05 1.717359e-04 -9.128096e-05 -1.084271e-04
          -6.725905e-05 -7.742455e-05 -8.053155e-05 -6.255390e-05 -4.141941e-05 2.328213e-05
          5.686491e-05 7.024165e-06 -6.684164e-06 1.946460e-05 4.317925e-05 7.663896e-05
          -4.635538e-05 -1.360191e-04 -1.955313e-04 -2.241200e-04 -2.526800e-04 -2.325005e-04
          -1.577204e-04 -1.337520e-04 -5.751833e-05 2.626177e-05 -8.126831e-05 -9.404180e-05
          -8.951646e-05 -9.811778e-05 -7.196770e-05 -1.257627e-04 -9.482382e-05 -8.885799e-05
          -8.494113e-05 -3.403876e-05 -5.042685e-05 -6.321041e-05 -8.537986e-05 -1.060474e-04
          -5.459597e-05 -1.335484e-05 -1.934086e-06 -1.429206e-05 -4.220635e-05 -6.774494e-05
          -8.287420e-05 -1.520355e-04 -1.911927e-04 2.149212e-05 -2.178649e-04 -2.875749e-04
          -2.728296e-04 -2.870764e-04 -2.908887e-04 -2.754867e-04 -2.564172e-04 -1.875750e-04
          3.084989e-06 2.605726e-04 3.555637e-04 2.278325e-04 1.035945e-04 -8.688348e-05
          9.206348e-05 -2.759959e-04 -3.043073e-04 -4.190077e-04 -3.192862e-04 -3.357734e-04
          -2.243466e-04 -3.307992e-05 -3.305881e-04 -6.709312e-04 -1.066863e-05 1.391446e-04
          1.169240e-04 1.484107e-04 -8.918710e-05 -3.491204e-05 -1.796229e-04 -2.068811e-04
          -2.155076e-04 -2.229660e-04 -8.864160e-05 -1.610860e-05 9.711016e-05 1.909547e-04
          -2.070616e-04 -5.150933e-04 -5.682288e-04 -5.125335e-04 -3.705639e-04 -2.005800e-04
          -7.301378e-05 2.572250e-04 4.428684e-04 -7.221139e-04 1.059593e-05 -4.069987e-05
          -2.295328e-04 -1.813449e-04 -1.591367e-04 -2.313278e-04 -3.178476e-04 -5.699612e-04
          7.803938e-05 -5.348466e-05 -9.224664e-05 -2.586107e-05 3.423536e-05 1.208761e-04
          -1.348353e-04 -2.209635e-04 -3.273718e-04 -3.697135e-04 -4.391536e-04 -4.104348e-04
          -3.560879e-04 -3.853522e-04 -2.033085e-04 9.988318e-06 -2.099905e-04 -1.745951e-04
          -1.550783e-04 -1.767824e-04 -1.257197e-04 -3.699214e-04 -3.020645e-04 -2.872508e-04
          -2.713116e-04 -2.800908e-05 -5.611769e-05 -9.101118e-05 -1.525937e-04 -2.186057e-04
          -1.458756e-04 -9.362822e-05 -6.898730e-05 -1.001575e-04 -1.704666e-04 -2.367505e-04
          -2.781235e-04 -4.521848e-04 -5.328187e-04 9.246578e-05 -4.093724e-04 -5.344693e-04
          -4.855165e-04 -5.218528e-04 -5.339679e-04 -4.953323e-04 -4.473696e-04 -2.811681e-04
          5.662910e-05 3.024153e-05 3.227698e-05 4.575842e-05 5.298230e-05 5.875555e-05
          -1.400375e-04 -3.869423e-04 -5.225288e-04 -6.327382e-04 -6.654809e-04 -6.470949e-04
          -5.705435e-04 -5.384040e-04 -4.764370e-04 -3.929810e-04 -2.719779e-04 -1.032306e-04
          -8.630350e-05 -9.683815e-05 -1.753479e-04 -5.205783e-04 -5.200402e-04 -5.165128e-04
          -4.973211e-04 -1.222456e-04 -7.414335e-05 -7.943591e-05 -9.769918e-05 -1.371741e-04
          -3.023879e-04 -4.396397e-04 -4.402799e-04 -4.489844e-04 -4.594310e-04 -4.496368e-04
          -4.318048e-04 -4.682748e-04 -4.570996e-04 -2.681589e-04 -4.607645e-04 -6.336428e-04
          -6.731026e-04 -6.929814e-04 -6.971979e-04 -6.882086e-04 -6.751773e-04 -6.052527e-04
          4.196262e-05 8.031838e-05 1.076118e-04 8.850449e-05 6.308717e-05 1.900034e-05
          -1.458279e-04 -4.930964e-04 -6.481415e-04 -8.017521e-04 -8.122023e-04 -8.000399e-04
          -7.091106e-04 -6.388171e-04 -6.505075e-04 -6.464834e-04 -3.123253e-04 -5.828427e-05
          -4.268809e-05 -4.645344e-05 -2.062987e-04 -6.192261e-04 -6.604136e-04 -6.638386e-04
          -6.423311e-04 -1.800472e-04 -8.400824e-05 -7.107190e-05 -6.280222e-05 -8.643148e-05
          -4.015733e-04 -6.583704e-04 -6.747129e-04 -6.696234e-04 -6.431577e-04 -5.862315e-04
          -5.315621e-04 -4.832057e-04 -4.148571e-04 -4.933471e-04 -4.968523e-04 -7.013928e-04
          -7.959938e-04 -8.059074e-04 -8.053015e-04 -8.145398e-04 -8.229581e-04 -8.117288e-04
          8.415848e-05 -2.025808e-04 -2.907599e-04 -1.473307e-04 -1.624446e-05 1.771596e-04
          -2.951570e-04 -3.243519e-04 -5.058703e-04 -5.646972e-04 -7.102039e-04 -6.614222e-04
          -6.221257e-04 -7.372291e-04 -3.558535e-04 9.528520e-05 -3.777747e-04 -2.900682e-04
          -2.455175e-04 -2.915061e-04 -1.731848e-04 -7.077131e-04 -5.641687e-04 -5.325031e-04
          -4.973476e-04 3.451525e-05 -2.797983e-05 -1.054065e-04 -2.406636e-04 -3.863512e-04
          -2.306842e-04 -1.224214e-04 -7.104770e-05 -1.378057e-04 -2.909045e-04 -4.413502e-04
          -5.382988e-04 -9.113006e-04 -1.078520e-03 3.055554e-04 -7.150798e-04 -9.324937e-04
          -8.099773e-04 -8.856023e-04 -9.126216e-04 -8.294117e-04 -7.263670e-04 -3.770433e-04
          -6.852899e-05 1.636024e-04 2.465393e-04 1.312706e-04 2.091251e-05 -1.440176e-04
          7.916973e-05 -1.478958e-04 -1.459407e-04 -2.333112e-04 -1.407276e-04 -1.572977e-04
          -6.615871e-05 9.972284e-05 -1.754376e-04 -4.930214e-04 8.245953e-05 1.997776e-04
          1.785920e-04 2.078451e-04 7.917752e-06 9.727497e-05 -3.110359e-05 -5.577258e-05
          -6.553079e-05 -1.156215e-04 -2.142376e-06 6.242977e-05 1.646778e-04 2.522519e-04
          -8.348910e-05 -3.436286e-04 -3.917098e-04 -3.409930e-04 -2.146953e-04 -6.873802e-05
          3.976067e-05 3.408238e-04 5.074466e-04 -5.511596e-04 1.169058e-04 9.626746e-05
          -6.252625e-05 -1.597683e-05 4.532284e-06 -6.060322e-05 -1.389413e-04 -3.707201e-04
          -5.523860e-05 -6.802545e-05 -7.653159e-05 -6.944662e-05 -5.965999e-05 -4.040106e-05
          1.809480e-05 1.351308e-04 1.691942e-04 1.995469e-04 1.989411e-04 2.041158e-04
          2.259520e-04 2.345070e-04 2.438507e-04 2.446753e-04 1.371899e-04 5.601015e-05
          5.074581e-05 5.103305e-05 1.008884e-04 2.328007e-04 2.494891e-04 2.510313e-04
          2.442845e-04 9.880904e-05 6.845432e-05 6.414035e-05 6.103947e-05 6.846333e-05
          1.688979e-04 2.507504e-04 2.561977e-04 2.539149e-04 2.432641e-04 2.225355e-04
          2.049239e-04 1.892268e-04 1.659934e-04 1.807413e-04 1.248445e-04 1.618414e-04
          1.890641e-04 1.918112e-04 1.923471e-04 1.962573e-04 2.003236e-04 2.065814e-04
          -3.792392e-05 -7.933904e-05 -9.981996e-05 -7.853163e-05 -5.449425e-05 -1.391126e-05
          3.789412e-05 2.139767e-04 2.699248e-04 3.329530e-04 3.250646e-04 3.289250e-04
          3.221742e-04 3.002858e-04 3.387331e-04 3.713812e-04 1.583527e-04 2.857104e-05
          2.309914e-05 2.109998e-05 1.135202e-04 2.952886e-04 3.301699e-04 3.346592e-04
          3.257677e-04 1.189505e-04 6.361817e-05 5.099110e-05 3.678747e-05 3.881225e-05
          2.180474e-04 3.629742e-04 3.757651e-04 3.676976e-04 3.411091e-04 2.986953e-04
          2.629490e-04 2.097121e-04 1.597430e-04 2.929120e-04 1.789608e-04 2.498691e-04
          3.060830e-04 3.053978e-04 3.037188e-04 3.152877e-04 3.282174e-04 3.546785e-04
          -3.619297e-05 1.224154e-04 1.724196e-04 9.337138e-05 2.029874e-05 -8.777932e-05
          1.524635e-04 1.336032e-04 2.185895e-04 2.383721e-04 3.165941e-04 2.921739e-04
          2.852899e-04 3.580606e-04 1.510291e-04 -9.362847e-05 1.822644e-04 1.472071e-04
          1.234020e-04 1.481034e-04 7.408106e-05 3.436596e-04 2.635803e-04 2.462752e-04
          2.281917e-04 -3.723157e-05 2.384323e-06 4.530005e-05 1.197788e-04 1.980917e-04
          9.635497e-05 2.380439e-05 -4.742430e-06 3.178020e-05 1.166929e-04 2.024769e-04
          2.590759e-04 4.646638e-04 5.587689e-04 -2.036438e-04 3.443458e-04 4.453279e-04
          3.716244e-04 4.119768e-04 4.269492e-04 3.811012e-04 3.246746e-04 1.361287e-04
          3.919704e-05 -6.655836e-05 -1.055568e-04 -5.303351e-05 -2.679853e-06 7.285731e-05
          -1.515365e-05 1.101753e-04 1.254186e-04 1.813048e-04 1.422620e-04 1.464178e-04
          8.717174e-05 1.021632e-06 1.225823e-04 2.622771e-04 -2.069240e-05 -9.465341e-05
          -8.672577e-05 -9.914988e-05 3.159031e-06 -5.781170e-07 5.889238e-05 7.011370e-05
          7.247315e-05 5.389724e-05 -4.485880e-06 -3.422697e-05 -7.992136e-05 -1.165852e-04
          5.927428e-05 1.965503e-04 2.193421e-04 1.965767e-04 1.390206e-04 7.041829e-05
          1.794442e-05 -1.193467e-04 -1.986771e-04 2.778578e-04 -4.011786e-06 2.863437e-05
          1.074087e-04 8.769223e-05 7.853108e-05 1.078333e-04 1.429442e-04 2.421300e-04
          -2.625226e-05 1.278905e-04 1.815745e-04 1.043013e-04 3.014387e-05 -8.183145e-05
          8.173379e-05 -3.722152e-05 -9.403660e-06 -4.135052e-05 2.511630e-05 3.853504e-06
          6.766033e-06 8.116422e-05 -1.093644e-04 -3.256585e-04 4.821637e-05 1.189323e-04
          1.047135e-04 1.254351e-04 -2.202601e-07 7.439698e-05 -1.348742e-05 -3.019010e-05
          -3.762306e-05 -8.985293e-05 -1.807211e-05 2.440530e-05 9.289730e-05 1.519395e-04
          -6.091585e-05 -2.259472e-04 -2.579574e-04 -2.235552e-04 -1.382954e-04 -4.166924e-05
          2.782179e-05 2.284070e-04 3.397268e-04 -3.529705e-04 1.525579e-04 1.784541e-04
          8.089340e-05 1.132366e-04 1.263538e-04 8.214232e-05 2.869754e-05 -1.368117e-04
          2.874188e-06 -5.269045e-05 -7.276161e-05 -4.499391e-05 -1.817820e-05 2.288754e-05
          -2.321970e-05 4.269308e-05 4.279907e-05 6.261958e-05 4.020197e-05 4.546087e-05
          3.113614e-05 -4.071441e-06 6.185705e-05 1.368604e-04 -3.725698e-06 -3.456737e-05
          -2.973678e-05 -3.672622e-05 1.269954e-05 -2.874819e-06 2.867930e-05 3.471254e-05
          3.672637e-05 4.276550e-05 1.461310e-05 -9.950739e-07 -2.532554e-05 -4.589543e-05
          3.773567e-05 1.025378e-04 1.141477e-04 1.019397e-04 7.123600e-05 3.514342e-05
          8.407410e-06 -6.327695e-05 -1.035789e-04 1.462704e-04 -2.168748e-05 -1.833282e-05
          2.048298e-05 9.615460e-06 4.967275e-06 2.066175e-05 3.952138e-05 9.592127e-05
          3.683731e-05 1.058364e-04 1.288813e-04 9.391259e-05 5.958955e-05 5.602805e-06
          7.633878e-05 2.009417e-05 5.262101e-05 6.296764e-05 9.765938e-05 7.987672e-05
          3.560771e-05 4.150782e-05 -4.914457e-05 -1.498047e-04 -1.488531e-06 1.111544e-05
          3.299647e-06 1.381387e-05 -3.222806e-05 3.312663e-05 -7.357753e-06 -1.512699e-05
          -2.034447e-05 -8.114906e-05 -5.503774e-05 -3.602289e-05 -4.571678e-06 2.495279e-05
          -4.953670e-05 -1.060928e-04 -1.195072e-04 -1.035262e-04 -6.391432e-05 -2.013096e-05
          9.064106e-06 9.771736e-05 1.444628e-04 -1.631986e-04 1.167268e-04 1.639408e-04
          1.265569e-04 1.421703e-04 1.476161e-04 1.270453e-04 1.018953e-04 1.660925e-05
          1.105509e-04 1.705115e-04 1.931168e-04 1.613924e-04 1.268642e-04 6.752692e-05
          7.108021e-05 -5.545287e-05 -3.778126e-05 -3.063615e-05 -3.256574e-07 -2.922766e-05
          -1.459163e-04 -1.902134e-04 -2.701227e-04 -3.457824e-04 -1.495905e-04 -7.152539e-05
          -7.226151e-05 -6.393563e-05 -1.358738e-04 -2.003323e-04 -2.473697e-04 -2.546357e-04
          -2.528203e-04 -1.765726e-04 -1.331657e-04 -1.160927e-04 -9.117120e-05 -7.647464e-05
          -2.128991e-04 -3.217484e-04 -3.361660e-04 -3.221469e-04 -2.827792e-04 -2.323047e-04
          -1.975475e-04 -1.208995e-04 -6.588383e-05 -2.811235e-04 3.668622e-05 7.766407e-05
          3.369756e-05 4.326809e-05 4.584855e-05 2.680647e-05 4.067896e-06 -7.404490e-05
          8.298310e-05 4.422837e-05 2.793152e-05 4.626027e-05 6.288564e-05 8.449222e-05
          5.786255e-05 1.175702e-04 1.615413e-04 2.257058e-04 2.200277e-04 2.061737e-04
          9.887353e-05 1.533793e-05 4.922780e-05 9.291855e-05 -3.838937e-05 -9.245741e-05
          -9.141274e-05 -9.384676e-05 -4.008057e-05 5.532468e-06 2.458665e-05 2.805712e-05
          2.618361e-05 -3.612232e-05 -6.670975e-05 -7.766514e-05 -9.344666e-05 -1.024386e-04
          -7.439392e-06 6.796070e-05 7.730326e-05 7.009057e-05 5.146396e-05 2.673197e-05
          3.850019e-06 -4.747388e-05 -7.995437e-05 1.031160e-04 9.718300e-05 1.733497e-04
          2.139728e-04 2.089310e-04 2.046812e-04 2.140166e-04 2.247138e-04 2.414044e-04
          -5.273674e-06 -1.949723e-06 -1.018390e-05 -1.153468e-05 -8.338281e-06 -5.117552e-07
          1.297607e-04 3.147933e-04 4.224351e-04 5.224800e-04 5.427707e-04 5.326059e-04
          4.848112e-04 4.606211e-04 4.341643e-04 3.902574e-04 2.153024e-04 3.598690e-05
          2.063844e-05 2.729515e-05 1.191872e-04 4.454220e-04 4.590676e-04 4.582392e-04
          4.404894e-04 8.183038e-05 2.523701e-05 2.483144e-05 3.287491e-05 6.368351e-05
          2.568958e-04 4.170235e-04 4.233829e-04 4.264226e-04 4.244431e-04 4.039491e-04
          3.796236e-04 3.830542e-04 3.523490e-04 2.615611e-04 3.519419e-04 4.962559e-04
          5.421734e-04 5.552833e-04 5.575916e-04 5.556189e-04 5.512977e-04 5.114767e-04
          -4.953846e-05 8.929677e-05 1.278529e-04 5.878065e-05 -2.138813e-06 -9.005902e-05
          1.956865e-04 2.918201e-04 4.236192e-04 4.929847e-04 5.710638e-04 5.457320e-04
          5.203855e-04 5.740558e-04 3.808843e-04 1.450782e-04 2.886397e-04 1.614472e-04
          1.326765e-04 1.575365e-04 1.436913e-04 5.540501e-04 4.927799e-04 4.773153e-04
          4.521261e-04 2.832306e-05 3.170114e-05 6.864466e-05 1.371028e-04 2.215637e-04
          2.382913e-04 2.622411e-04 2.407799e-04 2.739997e-04 3.458569e-04 4.078782e-04
          4.431175e-04 6.231338e-04 6.880432e-04 -2.150310e-05 4.928643e-04 6.558103e-04
          6.173450e-04 6.595360e-04 6.737476e-04 6.332376e-04 5.822628e-04 3.990648e-04
          2.849109e-05 -8.722847e-05 -1.315172e-04 -7.444566e-05 -1.882050e-05 6.514791e-05
          -3.157804e-06 1.812599e-04 2.184378e-04 2.964444e-04 2.567422e-04 2.574279e-04
          1.705701e-04 6.270708e-05 1.904085e-04 3.369374e-04 1.086342e-05 -8.540710e-05
          -7.769377e-05 -9.041553e-05 3.199499e-05 5.844787e-05 1.240426e-04 1.359895e-04
          1.370376e-04 8.292685e-05 1.316736e-05 -1.956195e-05 -6.929941e-05 -1.067813e-04
          1.038846e-04 2.687036e-04 2.937292e-04 2.693527e-04 2.061480e-04 1.278806e-04
          6.674764e-05 -8.238295e-05 -1.707191e-04 3.482526e-04 6.371677e-05 1.250804e-04
          2.189278e-04 1.992689e-04 1.891305e-04 2.209367e-04 2.586733e-04 3.608898e-04
          -2.876347e-05 2.283670e-04 3.155046e-04 1.856305e-04 6.123038e-05 -1.275969e-04
          1.756032e-04 3.319722e-05 1.179293e-04 1.011476e-04 2.189353e-04 1.711120e-04
          1.062742e-04 1.874356e-04 -1.411758e-04 -5.111311e-04 9.226803e-05 1.915436e-04
          1.668495e-04 2.031530e-04 7.811169e-06 1.693722e-04 2.068971e-05 -7.848113e-06
          -2.221615e-05 -1.523696e-04 -4.017384e-05 3.040799e-05 1.450208e-04 2.466926e-04
          -8.527360e-05 -3.422626e-04 -3.956103e-04 -3.371439e-04 -1.936607e-04 -3.466511e-05
          7.655322e-05 4.122681e-04 5.971090e-04 -5.508541e-04 3.679923e-04 4.664073e-04
          3.159841e-04 3.725697e-04 3.937301e-04 3.189660e-04 2.280872e-04 -6.352554e-05
          9.208786e-05 1.001450e-04 1.020427e-04 9.544689e-05 8.598815e-05 6.571922e-05
          6.287533e-05 6.574170e-05 1.122606e-04 1.607728e-04 1.742824e-04 1.420266e-04
          -3.538940e-05 -1.424650e-04 -1.692458e-04 -1.822497e-04 -1.234884e-04 -7.846735e-05
          -7.446343e-05 -7.156472e-05 -8.990461e-05 -1.551267e-04 -1.745714e-04 -1.766161e-04
          -1.736006e-04 -1.078498e-04 -9.415169e-05 -9.210173e-05 -8.993949e-05 -9.378579e-05
          -1.439965e-04 -1.867698e-04 -1.910623e-04 -1.876776e-04 -1.765533e-04 -1.624875e-04
          -1.565315e-04 -1.445499e-04 -1.251414e-04 -9.854873e-05 1.100010e-04 1.901253e-04
          1.916385e-04 1.931003e-04 1.909238e-04 1.858754e-04 1.796289e-04 1.449638e-04
          1.274996e-04 1.525132e-04 1.559654e-04 1.410798e-04 1.251464e-04 9.471272e-05
          1.535469e-04 2.028629e-04 3.047746e-04 4.044988e-04 4.358439e-04 3.946997e-04
          1.850524e-04 6.864000e-05 1.023523e-05 -4.470710e-05 -4.271685e-05 -8.743857e-05
          -9.333230e-05 -8.479117e-05 -6.797764e-05 4.603042e-05 2.447870e-05 2.039297e-05
          1.315032e-05 -1.162746e-04 -1.251894e-04 -1.189280e-04 -1.054378e-04 -8.693738e-05
          -5.528503e-05 -2.850057e-05 -3.202996e-05 -2.370263e-05 -4.321575e-06 1.099843e-05
          1.252368e-05 4.436588e-05 5.716955e-05 -3.076672e-05 2.861993e-04 4.461776e-04
          4.602800e-04 4.711351e-04 4.713307e-04 4.606309e-04 4.466932e-04 3.730828e-04
          3.766613e-05 4.711210e-05 3.678654e-05 3.264036e-05 3.423739e-05 3.923777e-05
          2.170956e-04 4.528880e-04 6.142694e-04 7.687656e-04 8.024318e-04 7.841602e-04
          7.002057e-04 6.591029e-04 6.143002e-04 5.437763e-04 2.865974e-04 1.315801e-05
          -1.098987e-05 -1.289743e-07 1.353505e-04 6.341927e-04 6.515143e-04 6.498312e-04
          6.224206e-04 7.352400e-05 -1.038293e-05 -9.676735e-06 4.997575e-06 5.382381e-05
          3.431163e-04 5.837716e-04 5.932204e-04 5.987793e-04 5.993082e-04 5.737314e-04
          5.403346e-04 5.494345e-04 5.044786e-04 3.488977e-04 5.165625e-04 7.402426e-04
          8.054642e-04 8.256065e-04 8.293039e-04 8.247740e-04 8.163931e-04 7.485491e-04
          -4.161893e-05 -5.613174e-05 -7.143566e-05 -6.317838e-05 -4.944858e-05 -2.295770e-05
          1.110055e-04 3.408953e-04 4.458420e-04 5.458632e-04 5.575954e-04 5.564115e-04
          5.460075e-04 5.367408e-04 5.336293e-04 5.109099e-04 2.708120e-04 6.149778e-05
          4.570551e-05 5.011211e-05 1.667407e-04 5.243741e-04 5.528839e-04 5.543772e-04
          5.353263e-04 1.406058e-04 6.891457e-05 6.333863e-05 6.427283e-05 9.176265e-05
          3.330791e-04 5.317008e-04 5.427397e-04 5.415694e-04 5.275948e-04 4.910981e-04
          4.554386e-04 4.360568e-04 3.876902e-04 3.567983e-04 3.509379e-04 4.858760e-04