<?xml version="1.0"?>
<VTKFile type="RectilinearGrid" version="0.1" byte_order="LittleEndian">
  <RectilinearGrid WholeExtent="0 47 0 47 0 47">
    <Piece Extent="0 47 0 47 0 47">
      <PointData Scalars="concentration">
        <DataArray type="Float32" Name="concentration" NumberOfComponents="1" format="ascii">
          2.817423e-05 6.214828e-05 7.420145e-05 5.863075e-05 4.370379e-05 2.056796e-05
          3.378098e-05 -4.962266e-05 -5.936912e-05 -7.450410e-05 -6.137144e-05 -5.495525e-05
          1.061308e-05 6.919650e-05 3.490443e-05 -1.204779e-05 2.545122e-05 -6.093784e-06
          -1.425514e-05 -9.639522e-06 -2.122873e-05 6.952399e-05 5.811905e-05 5.467630e-05
          4.910023e-05 -4.245396e-05 -3.850986e-05 -2.898753e-05 -1.189893e-05 9.099886e-06
          7.900941e-06 1.140503e-05 7.505350e-06 1.457808e-05 3.140515e-05 5.039609e-05
          6.433754e-05 1.043153e-04 1.155827e-04 -7.354486e-05 -1.837452e-05 -2.982538e-05
          -5.245600e-05 -4.483807e-05 -4.088104e-05 -4.982932e-05 -6.053231e-05 -9.235313e-05
          -1.107891e-04 -7.803699e-05 -7.253528e-05 -8.677263e-05 -9.483328e-05 -9.948353e-05
          3.830869e-05 1.528400e-04 1.938151e-04 2.094559e-04 2.269187e-04 2.398305e-04
          3.432538e-04 4.248958e-04 3.823706e-04 3.126423e-04 2.580236e-04 1.400160e-04
          1.250604e-04 1.319134e-04 1.699702e-04 4.244201e-04 4.261125e-04 4.231066e-04
          4.089133e-04 1.412038e-04 1.149718e-04 1.228209e-04 1.421170e-04 1.764552e-04
          2.741212e-04 3.579089e-04 3.567013e-04 3.641668e-04 3.743623e-04 3.729477e-04
          3.693422e-04 4.116225e-04 4.075815e-04 1.715611e-04 1.876334e-04 2.210355e-04
          2.258013e-04 2.407513e-04 2.469559e-04 2.390184e-04 2.284761e-04 1.920684e-04
          -2.123580e-04 9.945558e-06 7.930366e-05 -2.960957e-05 -1.259304e-04 -2.601756e-04
          1.298751e-04 1.773128e-04 2.670024e-04 2.485189e-04 3.482550e-04 3.402011e-04
          4.766916e-04 6.680999e-04 3.889661e-04 4.454612e-05 4.181437e-04 3.568823e-04
          3.220377e-04 3.549408e-04 2.555540e-04 6.604173e-04 5.595394e-04 5.361231e-04
          5.097744e-04 1.157421e-04 1.673140e-04 2.270793e-04 3.312465e-04 4.431884e-04
          3.132295e-04 2.218111e-04 1.819300e-04 2.318207e-04 3.440158e-04 4.532653e-04
          5.288102e-04 8.195484e-04 9.471406e-04 -1.630846e-04 4.438981e-04 5.169365e-04
          4.106295e-04 4.680806e-04 4.914320e-04 4.297167e-04 3.536790e-04 1.147033e-04
          -1.151214e-04 -2.832898e-04 -3.468243e-04 -2.614728e-04 -1.747180e-04 -3.547974e-05
          -1.046373e-04 1.970615e-04 2.011307e-04 2.503447e-04 1.795117e-04 2.117918e-04
          2.610895e-04 2.119082e-04 4.140597e-04 6.311582e-04 1.573050e-04 1.738051e-05
          2.774635e-05 6.655329e-06 1.800143e-04 2.211841e-04 3.281713e-04 3.468228e-04
          3.485342e-04 2.751510e-04 1.746636e-04 1.268504e-04 5.421551e-05 -2.349588e-07
          3.039182e-04 5.420589e-04 5.786458e-04 5.413347e-04 4.424512e-04 3.199663e-04
          2.304744e-04 1.539269e-05 -1.165338e-04 5.950306e-04 -1.109504e-05 -1.770286e-05
          1.086201e-04 7.920004e-05 6.724892e-05 1.163199e-04 1.750291e-04 3.560113e-04
          -8.040555e-05 7.522757e-05 1.291618e-04 5.169647e-05 -2.151136e-05 -1.294763e-04
          5.280074e-05 -4.061510e-05 -2.141188e-05 -6.862521e-05 -4.817795e-06 -1.915878e-05
          2.274457e-05 1.213503e-04 -6.796041e-05 -2.860242e-04 9.447127e-05 1.698335e-04
          1.557257e-04 1.760199e-04 4.753471e-05 1.183746e-04 3.226112e-05 1.557153e-05
          8.484315e-06 -3.714274e-05 3.608644e-05 7.880445e-05 1.474220e-04 2.065509e-04
          -1.209687e-05 -1.820215e-04 -2.147464e-04 -1.804185e-04 -9.631821e-05 -1.742583e-06
          6.772811e-05 2.713137e-04 3.841293e-04 -3.222936e-04 1.424995e-04 1.471915e-04
          4.724449e-05 7.989402e-05 9.383434e-05 4.981003e-05 -3.118820e-06 -1.621755e-04
          2.469896e-05 1.824465e-04 2.423542e-04 1.631536e-04 8.363016e-05 -4.025295e-05
          4.098127e-05 -2.131132e-04 -2.379890e-04 -3.145837e-04 -2.546518e-04 -2.745815e-04
          -2.649690e-04 -1.859320e-04 -3.695852e-04 -5.692993e-04 -9.979439e-05 5.804464e-05
          5.041672e-05 6.877476e-05 -1.061704e-04 -1.876032e-04 -2.861310e-04 -3.032730e-04
          -3.023394e-04 -1.834536e-04 -8.180025e-05 -3.742077e-05 2.942569e-05 7.623307e-05
          -2.364579e-04 -4.830872e-04 -5.188148e-04 -4.846334e-04 -3.943742e-04 -2.817219e-04
          -1.964546e-04 7.244098e-06 1.358823e-04 -5.315457e-04 -3.237963e-05 -6.928559e-05
          -1.939730e-04 -1.675546e-04 -1.554396e-04 -2.006284e-04 -2.539690e-04 -4.089491e-04
          1.028417e-04 -1.171888e-04 -1.881418e-04 -7.840447e-05 2.223479e-05 1.695906e-04
          -1.616408e-04 -1.349536e-04 -2.285347e-04 -2.265612e-04 -3.293499e-04 -3.025509e-04
          -3.307982e-04 -4.539771e-04 -1.720599e-04 1.612418e-04 -2.592651e-04 -2.483125e-04
          -2.187036e-04 -2.512988e-04 -1.298676e-04 -4.397867e-04 -3.274527e-04 -3.036607e-04
          -2.821754e-04 1.336673e-05 -5.315611e-05 -1.131680e-04 -2.146467e-04 -3.171982e-04
          -1.354551e-04 -7.482923e-07 4.083844e-05 -9.239381e-06 -1.262921e-04 -2.466976e-04
          -3.290036e-04 -6.162495e-04 -7.541301e-04 2.956780e-04 -4.154353e-04 -5.138977e-04
          -4.024146e-04 -4.564421e-04 -4.770277e-04 -4.144028e-04 -3.372164e-04 -8.827419e-05
          -8.872151e-05 2.354340e-04 3.481583e-04 1.869831e-04 3.385757e-05 -1.951204e-04
          1.541164e-04 -1.034841e-04 -6.314556e-05 -1.495750e-04 -1.384756e-05 -4.360504e-05
          4.735403e-05 2.572961e-04 -1.355042e-04 -5.906557e-04 1.644782e-04 2.812387e-04
          2.478810e-04 2.909154e-04 3.789219e-05 2.480489e-04 7.164299e-05 3.684095e-05
          1.857354e-05 -1.463543e-04 -3.761719e-06 8.572402e-05 2.305706e-04 3.604210e-04
          -5.591265e-05 -3.758360e-04 -4.413336e-04 -3.696457e-04 -1.937544e-04 4.298405e-06
          1.483775e-04 5.686268e-04 7.934680e-04 -6.981287e-04 2.801707e-04 3.032569e-04
          9.666489e-05 1.653031e-04 1.943129e-04 1.025695e-04 -8.227458e-06 -3.454661e-04
          -7.525508e-05 -1.036265e-04 -1.161019e-04 -1.005974e-04 -8.261199e-05 -5.036650e-05
          -2.586618e-05 7.171604e-05 7.500523e-05 8.003412e-05 6.696625e-05 8.325206e-05
          1.540068e-04 1.849497e-04 2.213820e-04 2.511297e-04 1.271159e-04 5.964775e-05
          5.721946e-05 5.404824e-05 1.036629e-04 1.893755e-04 2.160194e-04 2.195153e-04
          2.157157e-04 1.198362e-04 8.953372e-05 8.097037e-05 7.030804e-05 6.836071e-05
          1.662602e-04 2.453172e-04 2.534436e-04 2.468934e-04 2.265306e-04 1.974832e-04
          1.765054e-04 1.401850e-04 1.081278e-04 1.918705e-04 2.863930e-05 2.068168e-05
          4.837721e-05 4.584932e-05 4.543703e-05 5.460149e-05 6.534985e-05 1.007285e-04
          -1.311541e-04 -1.007492e-04 -9.489784e-05 -1.083167e-04 -1.158115e-04 -1.191443e-04
          1.043757e-05 1.240455e-04 1.531593e-04 1.552780e-04 1.690157e-04 1.824787e-04
          2.854815e-04 3.647043e-04 3.266629e-04 2.647138e-04 2.386956e-04 1.541737e-04
          1.425301e-04 1.481481e-04 1.721402e-04 3.667417e-04 3.665301e-04 3.638097e-04
          3.529323e-04 1.507752e-04 1.338070e-04 1.410706e-04 1.579917e-04 1.857169e-04
          2.503074e-04 3.059668e-04 3.035463e-04 3.102605e-04 3.196636e-04 3.194119e-04
          3.181663e-04 3.588708e-04 3.605761e-04 1.510120e-04 1.524895e-04 1.668481e-04
          1.671299e-04 1.799204e-04 1.856115e-04 1.784990e-04 1.689360e-04 1.402644e-04
          -1.368522e-04 -1.014875e-04 -9.403053e-05 -1.098015e-04 -1.191855e-04 -1.250297e-04
          1.386909e-05 1.277303e-04 1.581519e-04 1.593328e-04 1.752338e-04 1.896112e-04
          3.020093e-04 3.896258e-04 3.458188e-04 2.758044e-04 2.537164e-04 1.631904e-04
          1.503269e-04 1.567037e-04 1.802518e-04 3.917152e-04 3.900532e-04 3.868205e-04
          3.749420e-04 1.556987e-04 1.386687e-04 1.472727e-04 1.667311e-04 1.976590e-04
          2.639969e-04 3.215360e-04 3.184859e-04 3.263033e-04 3.379477e-04 3.396555e-04
          3.397440e-04 3.867630e-04 3.901706e-04 1.519659e-04 1.612349e-04 1.760716e-04
          1.742428e-04 1.884338e-04 1.947286e-04 1.864529e-04 1.751635e-04 1.415941e-04
          -2.777319e-06 -7.468640e-07 5.094019e-07 8.146024e-07 1.929527e-06 4.523278e-06
          -3.630048e-06 -3.966804e-05 -5.860275e-05 -7.509894e-05 -7.734106e-05 -6.432317e-05
          1.221032e-05 6.193794e-05 6.761776e-05 6.547723e-05 3.710104e-05 2.794862e-06
          -1.255774e-06 -1.330381e-06 8.301915e-06 6.577293e-05 7.241948e-05 7.248991e-05
          6.948120e-05 9.462928e-06 1.834938e-06 2.410383e-06 4.874114e-06 1.145846e-05
          4.251594e-05 6.976785e-05 7.172595e-05 7.157050e-05 7.008197e-05 6.814772e-05
          6.785963e-05 6.783418e-05 5.897897e-05 1.519343e-05 -5.086265e-05 -7.825046e-05
          -8.172903e-05 -8.107661e-05 -7.974175e-05 -7.896047e-05 -7.862029e-05 -7.218122e-05
          1.305129e-04 1.165324e-04 1.170075e-04 1.248512e-04 1.285956e-04 1.278579e-04
          -2.578355e-06 -1.944693e-04 -2.541869e-04 -2.862732e-04 -2.981158e-04 -2.884597e-04
          -2.445106e-04 -2.220677e-04 -1.890974e-04 -1.501504e-04 -1.585173e-04 -1.444184e-04
          -1.426478e-04 -1.464857e-04 -1.573533e-04 -2.180497e-04 -2.112693e-04 -2.097733e-04
          -2.062282e-04 -1.429310e-04 -1.379018e-04 -1.405996e-04 -1.468790e-04 -1.553867e-04
          -1.667865e-04 -1.743314e-04 -1.702504e-04 -1.744098e-04 -1.798700e-04 -1.762677e-04
          -1.709215e-04 -1.958501e-04 -2.077449e-04 -1.431359e-04 -2.278756e-04 -2.869684e-04
          -3.000894e-04 -3.084679e-04 -3.104086e-04 -3.055715e-04 -2.996530e-04 -2.737069e-04
          1.210268e-04 1.750138e-04 1.980725e-04 1.720505e-04 1.440532e-04 9.568798e-05
          5.043457e-05 -1.785850e-04 -2.158610e-04 -2.516277e-04 -2.321764e-04 -2.308789e-04
          -1.786229e-04 -1.181816e-04 -1.706678e-04 -2.319371e-04 -1.054590e-04 -9.039260e-05
          -9.753498e-05 -9.151442e-05 -1.434190e-04 -1.185404e-04 -1.472050e-04 -1.530595e-04
          -1.556356e-04 -1.729172e-04 -1.453865e-04 -1.293525e-04 -1.043741e-04 -8.184857e-05
          -1.551313e-04 -2.086367e-04 -2.173235e-04 -2.061179e-04 -1.748329e-04 -1.319459e-04
          -9.942064e-05 -3.656253e-05 -5.657646e-06 -2.626982e-04 -1.263666e-04 -1.601225e-04
          -2.105793e-04 -2.030327e-04 -1.988020e-04 -2.133790e-04 -2.312033e-04 -2.816174e-04
          7.283049e-05 3.686051e-06 -1.990544e-05 1.599438e-05 5.038313e-05 1.004598e-04
          -2.303565e-06 -2.016647e-05 -4.398106e-05 -2.959851e-05 -5.899895e-05 -4.012564e-05
          1.485674e-05 1.914547e-05 1.112746e-04 2.074768e-04 -1.753785e-05 -1.099853e-04
          -1.097800e-04 -1.186164e-04 -4.066115e-05 2.221967e-05 6.990004e-05 7.756487e-05
          7.568312e-05 -5.659859e-06 -5.316984e-05 -7.188664e-05 -9.982052e-05 -1.163424e-04
          3.843724e-05 1.638303e-04 1.821676e-04 1.664542e-04 1.268066e-04 8.160032e-05
          4.847158e-05 -4.659268e-05 -1.126801e-04 1.563237e-04 -1.126576e-04 -1.306021e-04
          -8.611447e-05 -9.973425e-05 -1.047868e-04 -8.400549e-05 -5.969220e-05 1.527611e-05
          9.240246e-07 1.008840e-04 1.336337e-04 8.521053e-05 4.106354e-05 -2.464292e-05
          9.852478e-05 1.744080e-05 4.392678e-05 3.712065e-05 8.295694e-05 8.283094e-05
          1.668214e-04 2.695238e-04 1.496680e-04 -1.965521e-06 1.327724e-04 6.819431e-05
          4.857734e-05 6.360932e-05 2.916827e-05 2.645028e-04 2.226482e-04 2.121111e-04
          1.972762e-04 -3.913051e-05 -2.382854e-05 3.776527e-06 5.250627e-05 1.089916e-04
          8.432139e-05 7.342311e-05 5.844969e-05 8.075372e-05 1.319203e-04 1.840721e-04
          2.196064e-04 3.451273e-04 3.915116e-04 -1.300178e-04 1.341304e-04 1.637599e-04
          1.127257e-04 1.380335e-04 1.484664e-04 1.211487e-04 8.681372e-05 -2.258638e-05
          5.761255e-05 4.059369e-07 -1.976092e-05 9.885001e-06 3.854974e-05 8.067293e-05
          5.352832e-06 6.233106e-06 -5.662312e-06 1.311749e-05 -9.939699e-06 4.519716e-06
          4.358442e-05 4.327452e-05 1.176775e-04 1.946843e-04 -9.245720e-07 -8.657738e-05
          -8.713683e-05 -9.395606e-05 -2.422461e-05 4.477821e-05 8.483729e-05 9.117354e-05
          8.867941e-05 2.555480e-06 -3.988917e-05 -5.555303e-05 -7.826536e-05 -9.048335e-05
          4.791970e-05 1.601052e-04 1.755727e-04 1.627722e-04 1.297664e-04 9.099211e-05
          6.195120e-05 -1.649214e-05 -7.261008e-05 1.469640e-04 -6.763718e-05 -7.231460e-05
          -3.232223e-05 -4.283543e-05 -4.691674e-05 -2.980812e-05 -9.964651e-06 4.952371e-05
          6.736369e-05 2.035588e-05 7.177866e-06 3.119482e-05 5.219266e-05 8.104809e-05
          -3.197272e-05 -1.053712e-04 -1.493379e-04 -1.641824e-04 -1.887566e-04 -1.768794e-04
          -1.478288e-04 -1.513165e-04 -8.360700e-05 -5.976975e-06 -9.796862e-05 -1.001984e-04
          -9.497565e-05 -1.025187e-04 -8.028679e-05 -1.462179e-04 -1.204001e-04 -1.152046e-04
          -1.106326e-04 -4.739431e-05 -6.049160e-05 -7.298084e-05 -9.405693e-05 -1.151863e-04
          -7.564371e-05 -4.487667e-05 -3.481096e-05 -4.595504e-05 -7.091265e-05 -9.335628e-05
          -1.074262e-04 -1.718419e-04 -2.051450e-04 9.348931e-06 -1.741664e-04 -2.206339e-04
          -2.045623e-04 -2.178694e-04 -2.221731e-04 -2.080776e-04 -1.911197e-04 -1.323092e-04
          2.648296e-05 2.873331e-04 3.828045e-04 2.528207e-04 1.256823e-04 -6.996990e-05
          1.187425e-04 -2.381507e-04 -2.473215e-04 -3.431281e-04 -2.381658e-04 -2.630064e-04
          -1.963752e-04 -3.118871e-05 -3.381519e-04 -6.868625e-04 -2.385158e-05 1.223995e-04
          9.950098e-05 1.324235e-04 -1.032538e-04 -3.690322e-05 -1.856904e-04 -2.138361e-04
          -2.231027e-04 -2.448967e-04 -1.110497e-04 -3.813586e-05 7.701069e-05 1.729806e-04
          -2.228790e-04 -5.293610e-04 -5.831717e-04 -5.260418e-04 -3.809709e-04 -2.083562e-04
          -8.055369e-05 2.542984e-04 4.428797e-04 -7.295124e-04 6.329542e-05 4.212406e-05
          -1.437445e-04 -9.396707e-05 -7.204476e-05 -1.457185e-04 -2.346818e-04 -4.994816e-04
          1.155156e-04 -1.249955e-05 -5.092237e-05 1.309828e-05 7.003074e-05 1.505233e-04
          -9.707300e-05 -1.760952e-04 -2.591501e-04 -2.768387e-04 -3.398122e-04 -3.208935e-04
          -3.189220e-04 -3.785397e-04 -2.070890e-04 -3.374196e-06 -2.277692e-04 -2.035869e-04
          -1.854200e-04 -2.053756e-04 -1.489334e-04 -3.682615e-04 -3.043806e-04 -2.905402e-04
          -2.759580e-04 -6.148713e-05 -9.225537e-05 -1.266943e-04 -1.859472e-04 -2.485246e-04
          -1.657808e-04 -1.053043e-04 -8.094384e-05 -1.105416e-04 -1.774101e-04 -2.409895e-04
          -2.826318e-04 -4.523952e-04 -5.316010e-04 8.393409e-05 -3.471410e-04 -4.340429e-04
          -3.806477e-04 -4.150471e-04 -4.274648e-04 -3.905279e-04 -3.453153e-04 -1.945378e-04
          1.514054e-04 1.297596e-04 1.315194e-04 1.415245e-04 1.441116e-04 1.387869e-04
          -5.257108e-05 -2.980531e-04 -3.866683e-04 -4.433409e-04 -4.632464e-04 -4.632572e-04
          -4.848135e-04 -5.094708e-04 -4.656579e-04 -3.987202e-04 -3.088244e-04 -1.806517e-04
          -1.675914e-04 -1.747118e-04 -2.339190e-04 -5.030898e-04 -5.074611e-04 -5.054313e-04
          -4.905384e-04 -2.025943e-04 -1.657709e-04 -1.701451e-04 -1.842026e-04 -2.149010e-04
          -3.397523e-04 -4.431384e-04 -4.429249e-04 -4.490890e-04 -4.539509e-04 -4.407731e-04
          -4.254635e-04 -4.576179e-04 -4.495989e-04 -2.790015e-04 -3.401139e-04 -4.329521e-04
          -4.607519e-04 -4.768304e-04 -4.815831e-04 -4.755229e-04 -4.671238e-04 -4.269569e-04
          1.747290e-04 2.187326e-04 2.453478e-04 2.219551e-04 1.908731e-04 1.322674e-04
          -2.503247e-05 -3.736285e-04 -4.654236e-04 -5.458441e-04 -5.390848e-04 -5.513242e-04
          -5.904782e-04 -5.955002e-04 -6.307063e-04 -6.480408e-04 -3.621010e-04 -1.676969e-04
          -1.575728e-04 -1.567980e-04 -2.882412e-04 -5.916597e-04 -6.385563e-04 -6.438436e-04
          -6.285728e-04 -2.915622e-04 -2.124261e-04 -1.982199e-04 -1.844702e-04 -1.958240e-04
          -4.509238e-04 -6.572318e-04 -6.720479e-04 -6.637200e-04 -6.301505e-04 -5.693131e-04
          -5.186575e-04 -4.657907e-04 -4.034265e-04 -5.057877e-04 -3.356096e-04 -4.315113e-04
          -5.095809e-04 -5.144130e-04 -5.145093e-04 -5.275599e-04 -5.419328e-04 -5.703059e-04
          1.844585e-04 -9.697213e-05 -1.854979e-04 -4.613238e-05 7.996483e-05 2.610424e-04
          -1.999311e-04 -2.207801e-04 -3.485905e-04 -3.473444e-04 -4.784683e-04 -4.509110e-04
          -5.249549e-04 -7.059601e-04 -3.456261e-04 8.697839e-05 -4.174249e-04 -3.713471e-04
          -3.305991e-04 -3.728253e-04 -2.341822e-04 -6.894087e-04 -5.518695e-04 -5.218621e-04
          -4.912590e-04 -5.050938e-05 -1.248139e-04 -2.010664e-04 -3.317789e-04 -4.683594e-04
          -2.711304e-04 -1.280750e-04 -7.607887e-05 -1.399655e-04 -2.867256e-04 -4.334054e-04
          -5.331986e-04 -9.009625e-04 -1.070680e-03 2.955237e-04 -5.754477e-04 -7.025994e-04
          -5.668684e-04 -6.382527e-04 -6.659085e-04 -5.860752e-04 -4.882956e-04 -1.723059e-04
          -6.472797e-05 1.709755e-04 2.543918e-04 1.362272e-04 2.318766e-05 -1.469020e-04
          9.580972e-05 -9.819961e-05 -7.370431e-05 -1.422619e-04 -4.446469e-05 -7.180985e-05
          -3.924505e-05 9.148465e-05 -1.956135e-04 -5.217815e-04 7.165357e-05 2.012575e-04
          1.812356e-04 2.117670e-04 8.003936e-06 8.487762e-05 -4.977203e-05 -7.538203e-05
          -8.455215e-05 -1.220113e-04 -5.149591e-06 6.009175e-05 1.637311e-04 2.506574e-04
          -9.847581e-05 -3.704562e-04 -4.203978e-04 -3.681959e-04 -2.383074e-04 -8.933915e-05
          1.977970e-05 3.271833e-04 5.010427e-04 -5.551538e-04 1.835086e-04 1.946614e-04
          3.885010e-05 8.682485e-05 1.068836e-04 3.993903e-05 -4.117522e-05 -2.858251e-04
          -8.952847e-05 -1.021720e-04 -1.103097e-04 -1.041366e-04 -9.499482e-05 -7.629277e-05
          -7.428143e-06 1.390579e-04 1.736483e-04 1.985568e-04 1.967520e-04 1.975773e-04
          1.928789e-04 1.834087e-04 1.900898e-04 1.929887e-04 1.258915e-04 8.642601e-05
          8.526196e-05 8.502750e-05 1.182835e-04 1.824986e-04 1.939917e-04 1.953429e-04
          1.922837e-04 1.209209e-04 1.018585e-04 9.741654e-05 9.278038e-05 9.320359e-05
          1.516629e-04 1.974694e-04 2.003915e-04 1.981920e-04 1.885290e-04 1.699932e-04
          1.547588e-04 1.421535e-04 1.293820e-04 1.691174e-04 1.311065e-04 1.637559e-04
          1.880848e-04 1.897534e-04 1.896538e-04 1.932711e-04 1.970178e-04 2.047853e-04
          -3.391577e-05 -7.907653e-05 -9.984234e-05 -7.766173e-05 -5.381055e-05 -1.471638e-05
          1.991551e-05 1.905158e-04 2.413031e-04 2.998367e-04 2.893386e-04 2.871152e-04
          2.407079e-04 1.911315e-04 2.325453e-04 2.760323e-04 1.017388e-04 1.888898e-05
          1.831423e-05 1.527375e-05 8.943853e-05 1.860439e-04 2.160620e-04 2.207248e-04
          2.164874e-04 1.010490e-04 5.796985e-05 4.438388e-05 2.666719e-05 1.926296e-05
          1.532518e-04 2.595154e-04 2.705478e-04 2.617541e-04 2.352225e-04 1.959121e-04
          1.631132e-04 1.068438e-04 6.538429e-05 2.479613e-04 1.543013e-04 2.199469e-04
          2.724975e-04 2.689533e-04 2.658250e-04 2.779098e-04 2.918915e-04 3.226317e-04
          -1.497946e-05 1.396238e-04 1.898984e-04 1.121452e-04 3.883839e-05 -7.139406e-05
          1.364967e-04 8.380489e-05 1.553112e-04 1.656721e-04 2.403209e-04 2.122553e-04
          1.794874e-04 2.334167e-04 3.233790e-05 -1.989641e-04 1.119503e-04 1.197918e-04
          1.002948e-04 1.237340e-04 3.132779e-05 2.196029e-04 1.357410e-04 1.186555e-04
          1.050549e-04 -7.307438e-05 -2.165230e-05 2.038153e-05 9.146763e-05 1.610042e-04
          1.699589e-05 -9.116554e-05 -1.209469e-04 -8.533512e-05 -5.464470e-07 8.916519e-05
          1.496385e-04 3.506779e-04 4.511986e-04 -2.655101e-04 2.898404e-04 3.769789e-04
          2.972404e-04 3.341764e-04 3.477285e-04 3.026558e-04 2.476716e-04 6.553361e-05
          8.205252e-05 -2.755818e-05 -6.623244e-05 -1.216985e-05 3.800241e-05 1.108407e-04
          -1.731525e-05 5.514726e-05 5.636404e-05 1.057136e-04 6.381358e-05 6.582272e-05
          -9.702093e-06 -1.078365e-04 2.063701e-05 1.728968e-04 -9.232337e-05 -1.416787e-04
          -1.312984e-04 -1.447248e-04 -5.392463e-05 -1.094814e-04 -5.178189e-05 -4.036941e-05
          -3.511051e-05 1.245148e-06 -5.008305e-05 -8.058905e-05 -1.288330e-04 -1.711326e-04
          -1.950069e-05 9.778095e-05 1.204824e-04 9.682087e-05 3.898763e-05 -2.610590e-05
          -7.539193e-05 -2.185783e-04 -2.961119e-04 2.148611e-04 -6.421623e-05 -4.280946e-05
          3.079392e-05 8.054109e-06 -2.276394e-06 2.782888e-05 6.436968e-05 1.686981e-04
          4.157107e-05 1.920325e-04 2.449473e-04 1.690198e-04 9.446043e-05 -2.139608e-05
          1.093886e-04 -5.263598e-05 -2.173156e-05 -4.106522e-05 2.638807e-05 -1.360419e-06
          -3.769608e-05 1.137702e-05 -1.763992e-04 -3.852152e-04 -1.806422e-05 5.247700e-05
          3.860902e-05 5.937332e-05 -6.514642e-05 9.154137e-07 -8.790222e-05 -1.045933e-04
          -1.115518e-04 -1.575156e-04 -8.635488e-05 -4.467721e-05 2.230771e-05 7.986255e-05
          -1.305325e-04 -2.932762e-04 -3.242889e-04 -2.903350e-04 -2.049023e-04 -1.061920e-04
          -3.630925e-05 1.577749e-04 2.664704e-04 -3.987346e-04 1.398690e-04 1.819315e-04
          8.570965e-05 1.165859e-04 1.285792e-04 8.463269e-05 3.178848e-05 -1.367767e-04
          3.466122e-05 -2.382632e-05 -4.432974e-05 -1.543721e-05 1.146528e-05 5.093084e-05
          -1.671862e-05 2.364930e-05 2.111903e-05 4.328196e-05 2.005341e-05 2.222962e-05
          -1.212356e-05 -6.103628e-05 8.290508e-06 9.027297e-05 -4.634000e-05 -6.765644e-05
          -6.172427e-05 -6.910219e-05 -2.305936e-05 -6.101604e-05 -3.025035e-05 -2.413629e-05
          -2.084792e-05 8.001559e-06 -1.788798e-05 -3.421985e-05 -6.015870e-05 -8.353872e-05
          -7.887732e-06 5.024863e-05 6.211908e-05 4.938485e-05 1.833608e-05 -1.638853e-05
          -4.225731e-05 -1.183761e-04 -1.587621e-04 1.147825e-04 -4.180406e-05 -3.624921e-05
          1.884519e-06 -1.049607e-05 -1.593360e-05 2.055774e-07 1.988402e-05 7.743514e-05
          3.011881e-05 9.776837e-05 1.223211e-04 8.859922e-05 5.513298e-05 2.630121e-06
          4.582979e-05 -5.665246e-05 -5.419619e-05 -7.151868e-05 -4.278654e-05 -5.168950e-05
          -4.779039e-05 -1.287504e-05 -9.368225e-05 -1.846238e-04 -1.993919e-05 1.065899e-05
          4.039723e-06 1.298593e-05 -4.485513e-05 -1.617654e-05 -5.495763e-05 -6.241649e-05
          -6.545556e-05 -8.448360e-05 -5.193085e-05 -3.308120e-05 -2.842170e-06 2.324119e-05
          -7.174505e-05 -1.446932e-04 -1.582113e-04 -1.432306e-04 -1.050905e-04 -5.973388e-05
          -2.696143e-05 5.907277e-05 1.064078e-04 -1.973154e-04 2.488567e-05 2.990058e-05
          -1.684834e-05 -3.712364e-06 1.793814e-06 -1.758930e-05 -4.090458e-05 -1.131130e-04
          9.426274e-05 1.548915e-04 1.805659e-04 1.503155e-04 1.174230e-04 6.189773e-05
          2.919732e-05 -1.768853e-04 -2.100044e-04 -2.499579e-04 -2.283658e-04 -2.362858e-04
          -2.337777e-04 -2.031870e-04 -2.678339e-04 -3.346064e-04 -1.381939e-04 -6.388946e-05
          -6.612646e-05 -5.982212e-05 -1.392317e-04 -2.040472e-04 -2.443694e-04 -2.511083e-04
          -2.490210e-04 -1.679329e-04 -1.223055e-04 -1.045681e-04 -7.907880e-05 -6.322764e-05
          -2.020681e-04 -3.108864e-04 -3.242263e-04 -3.114138e-04 -2.745969e-04 -2.235730e-04
          -1.845434e-04 -1.098839e-04 -6.027835e-05 -3.081436e-04 -1.110807e-04 -1.430950e-04
          -2.014027e-04 -1.940697e-04 -1.902268e-04 -2.075621e-04 -2.278472e-04 -2.856618e-04
          8.924246e-07 -3.675027e-05 -4.988847e-05 -3.039580e-05 -1.132532e-05 1.791006e-05
          -2.213316e-05 1.100612e-06 -1.095899e-05 -8.038282e-06 -2.523187e-05 -1.534977e-05
          1.088679e-05 9.800527e-06 5.893235e-05 1.115963e-04 6.885844e-06 -2.413322e-05
          -2.200879e-05 -2.721146e-05 8.520213e-06 1.277489e-05 3.718504e-05 4.141069e-05
          4.204062e-05 3.117097e-05 9.911378e-06 -4.229198e-07 -1.668034e-05 -2.886891e-05
          3.675458e-05 8.880161e-05 9.745038e-05 8.879934e-05 6.689822e-05 4.166484e-05
          2.375563e-05 -2.615151e-05 -5.714788e-05 9.969939e-05 -4.993015e-05 -6.480672e-05
          -4.098982e-05 -4.860849e-05 -5.139130e-05 -4.009011e-05 -2.653455e-05 1.680730e-05
          -1.539971e-04 -1.501944e-04 -1.558802e-04 -1.563514e-04 -1.501185e-04 -1.314600e-04
          1.232981e-05 2.200996e-04 2.739699e-04 3.050376e-04 3.117177e-04 3.231698e-04
          3.942035e-04 4.409716e-04 4.279072e-04 3.941570e-04 2.821906e-04 1.656717e-04
          1.554958e-04 1.586927e-04 2.186670e-04 4.406829e-04 4.560660e-04 4.561821e-04
          4.443268e-04 2.065146e-04 1.691190e-04 1.688760e-04 1.743657e-04 1.949641e-04
          3.205445e-04 4.238507e-04 4.270466e-04 4.284383e-04 4.227768e-04 4.011448e-04
          3.823644e-04 3.903028e-04 3.711815e-04 2.786491e-04 2.262147e-04 2.719326e-04
          3.002628e-04 3.101662e-04 3.135965e-04 3.137271e-04 3.125607e-04 3.037165e-04
          -1.839751e-04 -4.546905e-05 -5.141205e-06 -7.306526e-05 -1.308863e-04 -2.084122e-04
          9.161689e-05 2.142298e-04 3.001792e-04 3.099618e-04 3.759162e-04 3.694148e-04
          4.470060e-04 5.616842e-04 3.807578e-04 1.544496e-04 3.512634e-04 2.787898e-04
          2.546995e-04 2.764579e-04 2.356490e-04 5.546986e-04 4.953376e-04 4.808577e-04
          4.608109e-04 1.426984e-04 1.623880e-04 1.992929e-04 2.650970e-04 3.403208e-04
          2.990401e-04 2.740918e-04 2.499623e-04 2.815647e-04 3.497297e-04 4.099487e-04
          4.494219e-04 6.326381e-04 7.073267e-04 -8.681319e-08 3.875192e-04 4.651441e-04
          4.122701e-04 4.516249e-04 4.667896e-04 4.282950e-04 3.803718e-04 2.249318e-04
          -1.917860e-05 -1.362580e-04 -1.799402e-04 -1.210682e-04 -6.271813e-05 2.783003e-05
          -4.577611e-05 1.256400e-04 1.334967e-04 1.798143e-04 1.332812e-04 1.481251e-04
          1.399861e-04 8.000332e-05 2.183565e-04 3.713868e-04 4.691420e-05 -4.584257e-05
          -3.799917e-05 -5.239347e-05 6.567231e-05 8.266688e-05 1.533929e-04 1.662058e-04
          1.678339e-04 1.271103e-04 5.895749e-05 2.622870e-05 -2.451735e-05 -6.312702e-05
          1.428563e-04 3.042921e-04 3.297392e-04 3.040725e-04 2.376340e-04 1.567214e-04
          9.640501e-05 -5.465418e-05 -1.453984e-04 3.629352e-04 -1.141751e-05 1.436234e-06
          8.870859e-05 6.768041e-05 5.842223e-05 9.182179e-05 1.319900e-04 2.507107e-04
          -3.682912e-05 2.178120e-04 3.051788e-04 1.779029e-04 5.659214e-05 -1.266731e-04
          1.555451e-04 -2.919452e-05 2.696689e-05 -1.457978e-05 9.736209e-05 6.401521e-05
          8.027167e-05 2.114189e-04 -1.044493e-04 -4.667753e-04 1.140919e-04 1.940218e-04
          1.673679e-04 2.022797e-04 1.194238e-05 1.985751e-04 5.756330e-05 2.995810e-05
          1.428021e-05 -1.411792e-04 -3.377212e-05 3.673364e-05 1.507756e-04 2.546619e-04
          -5.830393e-05 -2.982296e-04 -3.494866e-04 -2.925216e-04 -1.526902e-04 3.112988e-06
          1.139895e-04 4.441421e-04 6.200316e-04 -5.439437e-04 2.857159e-04 3.431166e-04
          1.881168e-04 2.434740e-04 2.655395e-04 1.925501e-04 1.043998e-04 -1.725303e-04
          6.781505e-05 7.333546e-05 7.738669e-05 7.469220e-05 6.961187e-05 5.811690e-05
          9.859794e-06 -8.142121e-05 -9.943403e-05 -1.096081e-04 -1.085515e-04 -1.117125e-04
          -1.256276e-04 -1.313811e-04 -1.340703e-04 -1.322412e-04 -9.339683e-05 -6.663206e-05
          -6.526050e-05 -6.532245e-05 -8.497058e-05 -1.320450e-04 -1.391587e-04 -1.398753e-04
          -1.375557e-04 -8.650205e-05 -7.514359e-05 -7.299849e-05 -7.140414e-05 -7.307882e-05
          -1.092085e-04 -1.377420e-04 -1.392938e-04 -1.383530e-04 -1.330223e-04 -1.220346e-04
          -1.134423e-04 -1.088352e-04 -1.016325e-04 -1.092741e-04 -7.627378e-05 -8.956445e-05
          -1.026669e-04 -1.042309e-04 -1.046637e-04 -1.065941e-04 -1.081534e-04 -1.129242e-04
          5.507620e-05 7.744331e-05 8.530763e-05 7.449537e-05 6.288723e-05 4.287066e-05
          4.211069e-05 -2.070081e-05 -1.573511e-05 -1.139803e-05 1.921001e-07 -4.552648e-06
          -1.263820e-05 -5.941524e-06 -3.286394e-05 -6.323213e-05 -2.828110e-05 -3.815356e-05
          -4.222811e-05 -3.862616e-05 -4.977297e-05 -9.593335e-06 -2.136552e-05 -2.391783e-05
          -2.665958e-05 -6.771053e-05 -6.251865e-05 -5.622611e-05 -4.536633e-05 -3.343528e-05
          -4.476357e-05 -5.149950e-05 -5.468947e-05 -4.959174e-05 -3.651660e-05 -2.084728e-05
          -1.075627e-05 1.544400e-05 2.610341e-05 -7.983942e-05 9.405443e-06 2.400080e-05
          1.044402e-05 1.516163e-05 1.686690e-05 1.022127e-05 2.408713e-06 -2.610950e-05
          -1.142159e-04 -1.076312e-04 -1.137674e-04 -1.155170e-04 -1.106340e-04 -9.511126e-05
          5.599924e-05 2.622484e-04 3.356634e-04 3.896781e-04 4.021290e-04 4.097307e-04
          4.631093e-04 5.016248e-04 4.814274e-04 4.378633e-04 2.916443e-04 1.350573e-04
          1.208387e-04 1.260079e-04 2.031033e-04 4.967401e-04 5.133523e-04 5.129144e-04
          4.971001e-04 1.800396e-04 1.315374e-04 1.316746e-04 1.403402e-04 1.686902e-04
          3.342471e-04 4.713246e-04 4.760079e-04 4.785796e-04 4.744672e-04 4.523204e-04
          4.307244e-04 4.404873e-04 4.148234e-04 2.948326e-04 2.798604e-04 3.584813e-04
          3.933081e-04 4.057671e-04 4.095881e-04 4.085468e-04 4.056192e-04 3.842487e-04
          -1.659684e-04 -1.810682e-04 -1.939817e-04 -1.856102e-04 -1.708061e-04 -1.385143e-04
          1.729806e-06 2.589202e-04 3.218570e-04 3.655564e-04 3.655754e-04 3.741573e-04
          4.131765e-04 4.304323e-04 4.361798e-04 4.267681e-04 2.800607e-04 1.672476e-04
          1.600964e-04 1.612393e-04 2.338514e-04 4.294215e-04 4.529627e-04 4.548662e-04
          4.448979e-04 2.317140e-04 1.880461e-04 1.820471e-04 1.788522e-04 1.900241e-04
          3.310386e-04 4.447061e-04 4.508252e-04 4.483747e-04 4.328575e-04 3.993038e-04