<?xml version="1.0"?>
<VTKFile type="RectilinearGrid" version="0.1" byte_order="LittleEndian">
  <RectilinearGrid WholeExtent="0 47 0 47 0 47">
    <Piece Extent="0 47 0 47 0 47">
      <PointData Scalars="concentration">
        <DataArray type="Float32" Name="concentration" NumberOfComponents="1" format="ascii">
          3.525932e-04 3.729235e-04 3.788619e-04 3.703237e-04 3.574333e-04 3.258770e-04
          2.437029e-04 4.907856e-06 4.583309e-05 1.275957e-04 1.544034e-04 1.442367e-04
          1.146273e-04 1.160089e-04 8.962989e-05 4.935985e-05 -1.043906e-04 -3.062024e-04
          -3.282279e-04 -3.204011e-04 -2.517481e-04 9.545748e-05 9.884332e-05 9.580176e-05
          7.632661e-05 -3.080395e-04 -3.550320e-04 -3.481951e-04 -3.301933e-04 -2.871323e-04
          -1.029421e-04 5.804296e-05 6.670162e-05 7.276276e-05 8.652250e-05 9.916545e-05
          9.912336e-05 1.077482e-04 7.169759e-05 -1.081880e-04 5.311708e-05 1.646811e-04
          1.727114e-04 1.820546e-04 1.843504e-04 1.772272e-04 1.672119e-04 1.068875e-04
          2.187864e-04 2.377394e-04 2.435544e-04 2.355035e-04 2.253898e-04 2.032812e-04
          1.606425e-04 1.490565e-06 2.585048e-05 7.436866e-05 9.356432e-05 9.118981e-05
          1.013590e-04 1.237690e-04 1.015357e-04 6.574237e-05 -3.796773e-05 -1.847919e-04
          -2.015861e-04 -1.956396e-04 -1.484980e-04 1.113754e-04 1.137813e-04 1.112980e-04
          9.674813e-05 -1.883291e-04 -2.211816e-04 -2.150802e-04 -2.001558e-04 -1.668605e-04
          -3.653442e-05 7.768838e-05 8.308254e-05 8.818733e-05 9.908975e-05 1.085321e-04
          1.096265e-04 1.221595e-04 9.829774e-05 -6.080686e-05 3.569432e-05 1.026657e-04
          1.052345e-04 1.131175e-04 1.156632e-04 1.098441e-04 1.016513e-04 5.868680e-05
          1.204855e-05 2.237520e-04 2.962388e-04 1.914156e-04 9.189319e-05 -5.840632e-05
          1.665938e-04 -2.567084e-05 2.024273e-05 -6.997399e-06 8.761966e-05 6.838734e-05
          1.333816e-04 2.771171e-04 1.838341e-05 -2.876392e-04 1.282721e-04 1.250955e-04
          9.581851e-05 1.258940e-04 -4.855862e-06 2.656303e-04 1.575498e-04 1.346476e-04
          1.154988e-04 -1.392792e-04 -6.855530e-05 -9.770310e-06 8.799970e-05 1.860440e-04
          -4.008217e-06 -1.435018e-04 -1.821172e-04 -1.346543e-04 -2.035166e-05 1.048239e-04
          1.928694e-04 4.633208e-04 5.924398e-04 -4.214900e-04 2.318219e-04 2.844062e-04
          1.605991e-04 2.084679e-04 2.280476e-04 1.681037e-04 9.473317e-05 -1.371410e-04
          -1.622445e-06 -1.757249e-04 -2.364322e-04 -1.487287e-04 -6.365683e-05 6.720958e-05
          -1.034308e-04 4.804641e-05 1.304221e-05 4.253137e-05 -3.397311e-05 -3.920331e-06
          2.795301e-05 -3.419316e-05 1.829189e-04 4.250245e-04 -1.044496e-05 -1.038261e-04
          -8.934765e-05 -1.127485e-04 3.480606e-05 -2.424831e-05 7.853270e-05 9.761800e-05
          1.047497e-04 1.378256e-04 5.286764e-05 4.758388e-06 -7.194642e-05 -1.364150e-04
          1.181540e-04 3.162708e-04 3.530284e-04 3.140287e-04 2.160915e-04 1.037634e-04
          2.354803e-05 -2.026256e-04 -3.314762e-04 4.344571e-04 -1.715892e-04 -2.114476e-04
          -1.002255e-04 -1.360937e-04 -1.501192e-04 -9.965075e-05 -3.890563e-05 1.520906e-04
          -1.107329e-05 1.413613e-04 1.940527e-04 1.188545e-04 4.755583e-05 -5.907682e-05
          1.010367e-04 -4.092890e-05 -1.881940e-05 -5.082927e-05 1.477223e-05 4.826935e-06
          7.315046e-05 1.895171e-04 6.174394e-06 -2.117336e-04 9.825862e-05 1.064266e-04
          8.619442e-05 1.072357e-04 7.315311e-06 1.839004e-04 1.064445e-04 9.006374e-05
          7.735311e-05 -8.501945e-05 -3.078062e-05 1.159856e-05 8.156030e-05 1.504308e-04
          1.987160e-06 -1.080598e-04 -1.362692e-04 -1.024329e-04 -2.071403e-05 6.954897e-05
          1.342296e-04 3.292793e-04 4.238693e-04 -3.062604e-04 1.386509e-04 1.583983e-04
          6.563059e-05 9.937048e-05 1.136873e-04 7.085952e-05 1.864575e-05 -1.427799e-04
          8.847191e-05 2.440739e-04 2.979289e-04 2.213115e-04 1.467634e-04 3.129495e-05
          1.595534e-04 -5.079983e-05 -2.012566e-05 -3.163187e-05 3.983640e-05 2.440189e-05
          6.640864e-05 1.700683e-04 -1.808207e-05 -2.409455e-04 4.265078e-05 1.637620e-05
          -7.513023e-06 1.502463e-05 -7.368334e-05 1.588862e-04 8.056609e-05 6.352885e-05
          4.760361e-05 -1.782556e-04 -1.317298e-04 -8.812918e-05 -1.512248e-05 6.094380e-05
          -5.652099e-05 -1.391308e-04 -1.655396e-04 -1.306015e-04 -4.549055e-05 4.923014e-05
          1.149367e-04 3.098366e-04 3.978249e-04 -3.555253e-04 1.404310e-04 1.882083e-04
          9.638884e-05 1.312225e-04 1.455234e-04 1.011330e-04 4.695152e-05 -1.282699e-04
          2.526251e-04 2.876978e-05 -4.859880e-05 6.453746e-05 1.691379e-04 3.198527e-04
          2.650674e-06 1.901461e-05 -1.198822e-05 7.362071e-05 -1.447244e-05 1.120183e-05
          -1.629709e-05 -1.336656e-04 1.443952e-04 4.572026e-04 -1.745447e-04 -3.709790e-04
          -3.595741e-04 -3.873853e-04 -1.698830e-04 -1.338461e-04 -8.282215e-07 2.294420e-05
          2.575920e-05 -6.141968e-05 -1.894524e-04 -2.503795e-04 -3.454164e-04 -4.155895e-04
          -1.433570e-05 3.055016e-04 3.583881e-04 3.090820e-04 1.877313e-04 5.130504e-05
          -5.104045e-05 -3.525607e-04 -5.379361e-04 4.319550e-04 -2.452891e-04 -2.350639e-04
          -8.771069e-05 -1.336167e-04 -1.526210e-04 -8.935670e-05 -1.329184e-05 2.079916e-04
          1.871390e-04 5.036278e-04 6.134059e-04 4.567705e-04 3.038695e-04 6.555612e-05
          3.223514e-04 -1.010908e-04 -3.383814e-05 -5.338980e-05 9.284735e-05 5.434204e-05
          9.813587e-05 2.823709e-04 -1.035282e-04 -5.547344e-04 4.997093e-05 2.539720e-05
          -2.030452e-05 2.537133e-05 -1.663105e-04 2.579344e-04 9.349495e-05 5.873838e-05
          2.881798e-05 -3.787168e-04 -2.761885e-04 -1.875875e-04 -4.022088e-05 1.096470e-04
          -1.582530e-04 -3.510308e-04 -4.063602e-04 -3.350935e-04 -1.602783e-04 3.566187e-05
          1.713782e-04 5.690565e-04 7.553197e-04 -7.529085e-04 2.937468e-04 3.991073e-04
          2.109527e-04 2.809323e-04 3.091110e-04 2.183139e-04 1.075381e-04 -2.517784e-04
          2.154031e-04 1.780889e-04 1.652368e-04 1.851732e-04 2.012618e-04 2.188678e-04
          1.072015e-04 -1.577980e-05 -1.225129e-05 3.559323e-05 2.807667e-05 3.237402e-05
          3.383989e-05 2.314494e-05 7.173634e-05 1.200457e-04 -8.398019e-05 -2.199846e-04
          -2.282434e-04 -2.307118e-04 -1.544547e-04 1.508226e-05 4.570741e-05 4.933062e-05
          4.087161e-05 -1.559584e-04 -2.042959e-04 -2.136550e-04 -2.250914e-04 -2.194660e-04
          -4.990377e-05 9.217869e-05 1.074990e-04 9.982008e-05 8.037645e-05 5.785845e-05
          3.724444e-05 -2.226934e-05 -7.884902e-05 3.446159e-05 -5.319822e-05 -1.188755e-05
          2.011775e-05 1.438631e-05 1.176432e-05 2.197591e-05 3.354467e-05 5.535508e-05
          6.540871e-05 8.785824e-05 9.514837e-05 8.454538e-05 7.398210e-05 5.656303e-05
          6.590565e-05 6.480871e-06 1.936418e-05 3.377143e-05 4.739125e-05 4.649058e-05
          6.315849e-05 8.690508e-05 5.964353e-05 2.295978e-05 1.311853e-05 -4.317682e-05
          -5.178311e-05 -4.733449e-05 -3.821106e-05 8.209686e-05 7.589221e-05 7.332472e-05
          6.629888e-05 -6.206330e-05 -6.978932e-05 -6.323518e-05 -5.054088e-05 -3.071838e-05
          5.769612e-06 3.945772e-05 3.854927e-05 4.395308e-05 5.577295e-05 6.721075e-05
          7.337703e-05 9.831237e-05 9.884866e-05 -3.762796e-05 3.690502e-05 6.336780e-05
          5.596524e-05 6.259209e-05 6.524833e-05 5.884524e-05 5.045103e-05 1.882280e-05
          -1.227002e-04 -9.232864e-05 -8.309542e-05 -9.866738e-05 -1.108001e-04 -1.238394e-04
          -2.995296e-05 5.426668e-05 6.815713e-05 5.366390e-05 6.468298e-05 6.408311e-05
          8.414152e-05 1.090711e-04 6.822563e-05 1.978221e-05 1.071296e-04 1.369198e-04
          1.357505e-04 1.397034e-04 1.127734e-04 1.113794e-04 9.488416e-05 9.179929e-05
          9.125671e-05 1.013772e-04 1.178324e-04 1.257141e-04 1.382951e-04 1.473665e-04
          9.271882e-05 4.776151e-05 3.942908e-05 4.629739e-05 6.075709e-05 7.374099e-05
          8.415742e-05 1.289135e-04 1.569578e-04 1.978331e-05 8.889743e-05 8.570928e-05
          7.047161e-05 7.811326e-05 8.142168e-05 7.322861e-05 6.291255e-05 3.623062e-05
          -1.702118e-04 -1.708522e-04 -1.736370e-04 -1.743924e-04 -1.713572e-04 -1.598915e-04
          -6.276244e-05 1.173213e-04 1.419925e-04 1.407396e-04 1.394848e-04 1.373748e-04
          1.228085e-04 1.100821e-04 1.014333e-04 9.284508e-05 1.260643e-04 1.648733e-04
          1.692839e-04 1.692525e-04 1.621983e-04 1.131228e-04 1.107795e-04 1.110299e-04
          1.136671e-04 1.699303e-04 1.766290e-04 1.754023e-04 1.732178e-04 1.664169e-04
          1.339238e-04 1.033898e-04 9.949035e-05 9.976955e-05 9.729967e-05 8.936259e-05
          8.435081e-05 9.245898e-05 1.058683e-04 1.260302e-04 1.203685e-04 1.259090e-04
          1.343309e-04 1.361828e-04 1.365161e-04 1.368173e-04 1.367560e-04 1.408342e-04
          -1.238888e-04 -1.406727e-04 -1.503393e-04 -1.432384e-04 -1.331222e-04 -1.128416e-04
          -2.963480e-05 1.674256e-04 2.114590e-04 2.397070e-04 2.367009e-04 2.295578e-04
          1.749060e-04 1.307097e-04 1.366017e-04 1.454288e-04 1.120008e-04 1.159758e-04
          1.197337e-04 1.188035e-04 1.391973e-04 1.291460e-04 1.360495e-04 1.378465e-04
          1.385931e-04 1.468103e-04 1.374520e-04 1.315752e-04 1.233676e-04 1.148514e-04
          1.343765e-04 1.460157e-04 1.467326e-04 1.439882e-04 1.335961e-04 1.147861e-04
          9.942848e-05 8.532467e-05 8.213543e-05 1.719720e-04 1.619481e-04 2.023517e-04
          2.289033e-04 2.290480e-04 2.276973e-04 2.319463e-04 2.363996e-04 2.463726e-04
          -1.142412e-04 -6.335860e-05 -4.958161e-05 -7.641473e-05 -9.910890e-05 -1.294635e-04
          1.924494e-05 1.522521e-04 2.113257e-04 2.310046e-04 2.583276e-04 2.405359e-04
          1.799416e-04 1.644262e-04 8.622101e-05 -2.567475e-07 1.222608e-04 1.488486e-04
          1.456485e-04 1.540449e-04 1.227882e-04 1.585375e-04 1.270852e-04 1.214739e-04
          1.182257e-04 8.856756e-05 1.084600e-04 1.213276e-04 1.434635e-04 1.622870e-04
          9.686959e-05 4.340661e-05 3.059687e-05 4.304454e-05 7.042813e-05 9.440078e-05
          1.092421e-04 1.823199e-04 2.259595e-04 1.002579e-05 2.320769e-04 2.912226e-04
          2.759863e-04 2.905525e-04 2.948179e-04 2.795267e-04 2.603489e-04 1.951073e-04
          -7.626188e-05 -1.486879e-04 -1.768774e-04 -1.422070e-04 -1.068684e-04 -5.085178e-05
          -5.124964e-05 1.527328e-04 1.828721e-04 2.234043e-04 1.967844e-04 1.930640e-04
          1.126205e-04 2.621822e-05 1.010170e-04 1.920241e-04 4.010442e-05 3.476096e-05
          4.512019e-05 3.647810e-05 9.384390e-05 2.576788e-05 6.103823e-05 6.874447e-05
          7.375990e-05 1.333340e-04 1.034155e-04 8.237891e-05 4.895906e-05 1.637974e-05
          9.499152e-05 1.516124e-04 1.634466e-04 1.482948e-04 1.087908e-04 5.934366e-05
          2.185204e-05 -6.549180e-05 -1.057989e-04 2.487446e-04 8.139470e-05 1.138718e-04
          1.720066e-04 1.592372e-04 1.524427e-04 1.722275e-04 1.957568e-04 2.635259e-04
          -1.149502e-04 -1.796021e-05 1.312307e-05 -3.693774e-05 -8.250355e-05 -1.483466e-04
          2.901979e-05 9.602275e-05 1.488932e-04 1.461561e-04 1.909854e-04 1.677616e-04
          1.120391e-04 1.208702e-04 -1.128514e-05 -1.567783e-04 1.018821e-04 1.736510e-04
          1.682097e-04 1.819896e-04 1.004069e-04 1.146756e-04 5.473258e-05 4.411998e-05
          4.102593e-05 4.375203e-05 9.290667e-05 1.187844e-04 1.604467e-04 1.929931e-04
          3.750967e-05 -8.712853e-05 -1.104102e-04 -8.795678e-05 -3.443261e-05 2.182383e-05
          6.110461e-05 1.940270e-04 2.752292e-04 -1.368513e-04 2.284570e-04 2.769850e-04
          2.258811e-04 2.484028e-04 2.562235e-04 2.277875e-04 1.930654e-04 8.281058e-05
          -1.328253e-04 -1.909869e-04 -2.128221e-04 -1.854886e-04 -1.568444e-04 -1.091403e-04
          -9.426615e-05 1.061869e-04 1.181874e-04 1.288648e-04 1.030962e-04 1.015996e-04
          4.315754e-05 -2.458503e-05 3.632191e-05 1.134953e-04 4.295352e-05 9.137666e-05
          1.045452e-04 9.642055e-05 1.200793e-04 -2.041387e-05 3.845909e-06 1.011431e-05
          1.885665e-05 1.623392e-04 1.529407e-04 1.359066e-04 1.069638e-04 7.205292e-05
          8.135929e-05 8.073717e-05 8.715867e-05 7.465493e-05 4.274694e-05 4.344276e-06
          -2.243833e-05 -8.868983e-05 -1.087022e-04 1.979274e-04 4.324330e-05 4.123638e-05
          8.131985e-05 6.933149e-05 6.372955e-05 7.987654e-05 9.934597e-05 1.629156e-04
          -1.931797e-04 -2.379602e-04 -2.544868e-04 -2.337921e-04 -2.108182e-04 -1.690218e-04
          -1.292045e-04 8.198038e-05 8.205605e-05 6.900451e-05 4.471286e-05 4.659454e-05
          1.685086e-05 -2.812918e-05 1.914251e-05 8.049833e-05 7.034162e-05 1.532898e-04
          1.676625e-04 1.603669e-04 1.601839e-04 -1.990654e-05 -3.877083e-06 1.078068e-06
          1.177711e-05 2.033202e-04 2.082137e-04 1.948836e-04 1.707059e-04 1.362719e-04
          9.751961e-05 5.738559e-05 5.939659e-05 4.948510e-05 2.394077e-05 -6.362305e-06
          -2.515730e-05 -7.177251e-05 -7.592920e-05 1.760122e-04 2.721735e-05 -1.560528e-06
          2.469006e-05 1.434060e-05 1.023848e-05 2.305124e-05 3.865727e-05 9.735068e-05
          -2.498197e-04 1.381483e-05 1.039431e-04 -2.931448e-05 -1.530151e-04 -3.318949e-04
          4.362691e-05 1.852445e-05 7.431397e-05 -1.651642e-06 1.071307e-04 7.310561e-05
          8.785893e-05 2.169581e-04 -1.148424e-04 -4.898452e-04 2.109448e-04 3.975545e-04
          3.799062e-04 4.144222e-04 1.788135e-04 2.122297e-04 5.835671e-05 2.993611e-05
          2.240949e-05 4.046277e-05 1.782350e-04 2.501738e-04 3.640994e-04 4.543301e-04
          2.828081e-05 -3.091684e-04 -3.693639e-04 -3.104894e-04 -1.673131e-04 -8.557480e-06
          1.083996e-04 4.616703e-04 6.711319e-04 -4.899004e-04 3.389586e-04 3.608686e-04
          1.954984e-04 2.513016e-04 2.742454e-04 1.991740e-04 1.082819e-04 -1.628479e-04
          -1.482690e-04 -2.731357e-04 -3.172977e-04 -2.562827e-04 -1.954218e-04 -9.738712e-05
          -1.567717e-04 9.006995e-05 7.508116e-05 8.247375e-05 2.448604e-05 3.658214e-05
          1.409383e-06 -8.408044e-05 6.276533e-05 2.371754e-04 2.458101e-05 6.189264e-05
          8.271743e-05 6.486222e-05 1.327498e-04 -7.351542e-05 -1.154993e-05 2.040223e-06
          1.588934e-05 2.200777e-04 1.856502e-04 1.503295e-04 9.109354e-05 2.742545e-05
          1.075827e-04 1.606272e-04 1.800122e-04 1.522904e-04 8.293125e-05 3.551944e-06
          -5.098703e-05 -2.032936e-04 -2.677933e-04 3.413839e-04 -6.212078e-05 -1.000214e-04
          -2.323433e-05 -5.053512e-05 -6.147374e-05 -2.584066e-05 1.733560e-05 1.599065e-04
          -7.916911e-05 -9.654819e-05 -1.037082e-04 -9.577706e-05 -8.700680e-05 -7.055750e-05
          -4.381777e-05 5.935558e-05 6.949785e-05 7.300040e-05 6.510392e-05 6.271953e-05
          3.393229e-05 5.585900e-06 2.099664e-05 4.234962e-05 3.539661e-05 6.517051e-05
          7.076190e-05 6.833144e-05 7.127676e-05 7.249745e-06 1.283116e-05 1.470808e-05
          1.846090e-05 8.588299e-05 8.629363e-05 8.090965e-05 7.161170e-05 5.863018e-05
          4.721700e-05 3.438287e-05 3.500446e-05 3.143753e-05 2.169192e-05 9.095969e-06
          4.428715e-07 -1.710251e-05 -1.824741e-05 8.263611e-05 4.251019e-05 4.452448e-05
          5.804235e-05 5.459529e-05 5.299747e-05 5.772755e-05 6.327034e-05 8.268528e-05
          -3.114134e-05 1.792427e-05 3.356483e-05 8.718420e-06 -1.471982e-05 -4.893416e-05
          2.990788e-05 4.169840e-05 6.834445e-05 7.111107e-05 9.450498e-05 8.300326e-05
          5.732046e-05 6.393230e-05 -1.978914e-06 -7.553516e-05 4.102021e-05 6.245635e-05
          5.830679e-05 6.549478e-05 2.987650e-05 5.973846e-05 3.072517e-05 2.536803e-05
          2.254961e-05 -1.231551e-06 1.967726e-05 3.279639e-05 5.452324e-05 7.347205e-05
          9.218592e-06 -4.108237e-05 -5.185993e-05 -4.046908e-05 -1.333018e-05 1.526448e-05
          3.472226e-05 1.001928e-04 1.373260e-04 -7.732856e-05 1.089626e-04 1.378198e-04
          1.127348e-04 1.241696e-04 1.283384e-04 1.139391e-04 9.618357e-05 3.877078e-05
          6.460787e-06 -2.701175e-04 -3.670452e-04 -2.290988e-04 -9.698446e-05 1.040538e-04
          -1.656627e-04 1.039538e-04 6.665740e-05 1.285283e-04 9.855701e-06 3.972320e-05
          -1.361749e-05 -1.790887e-04 1.569112e-04 5.443327e-04 -8.850815e-05 -1.751195e-04
          -1.454218e-04 -1.826964e-04 2.938226e-05 -1.677312e-04 -1.617562e-05 1.383825e-05
          3.040682e-05 1.925619e-04 7.356063e-05 -3.366150e-06 -1.275910e-04 -2.404816e-04
          1.026672e-04 3.649688e-04 4.197574e-04 3.583343e-04 2.065055e-04 3.434617e-05
          -8.968035e-05 -4.460169e-04 -6.344015e-04 6.387098e-04 -2.290393e-04 -2.644904e-04
          -8.825037e-05 -1.467014e-04 -1.707977e-04 -9.208632e-05 3.029678e-06 2.976449e-04
          -1.582268e-04 8.042673e-05 1.622896e-04 4.300742e-05 -6.861195e-05 -2.318197e-04
          7.474610e-05 -2.018585e-05 2.083376e-05 -4.559991e-05 5.331706e-05 2.919091e-05
          8.191156e-05 2.254022e-04 -6.869798e-05 -4.073257e-04 1.778820e-04 2.958198e-04
          2.747954e-04 3.061530e-04 1.110321e-04 2.204048e-04 8.758512e-05 6.214614e-05
          5.112169e-05 -1.919170e-05 9.260573e-05 1.580083e-04 2.630877e-04 3.532297e-04
          1.727683e-05 -2.446182e-04 -2.955373e-04 -2.426198e-04 -1.138440e-04 2.900442e-05
          1.334175e-04 4.478049e-04 6.230722e-04 -4.579618e-04 2.642244e-04 2.816888e-04
          1.324946e-04 1.836294e-04 2.048470e-04 1.374415e-04 5.570653e-05 -1.900496e-04
          -2.862143e-05 -4.092791e-05 -4.406723e-05 -3.741445e-05 -3.077860e-05 -1.917026e-05
          -3.896785e-05 -4.241481e-05 -6.573140e-05 -8.623605e-05 -9.616725e-05 -8.682387e-05
          -4.460073e-05 -2.481096e-05 -3.742798e-06 1.817536e-05 4.762328e-06 1.531658e-05
          1.754662e-05 1.476428e-05 1.513850e-05 -1.958241e-05 -1.149809e-05 -9.870396e-06
          -7.573104e-06 3.017087e-05 2.988342e-05 2.657433e-05 2.043985e-05 1.307730e-05
          1.172085e-05 9.883778e-06 1.185706e-05 8.500142e-06 6.207843e-07 -6.797103e-06
          -1.003543e-05 -2.580991e-05 -3.261204e-05 2.049010e-05 -6.875343e-05 -1.048707e-04
          -1.037531e-04 -1.077091e-04 -1.083865e-04 -1.040718e-04 -9.879984e-05 -7.528488e-05
          1.644492e-04 1.161234e-04 1.028862e-04 1.281207e-04 1.486979e-04 1.738908e-04
          2.139814e-05 -1.282166e-04 -1.718220e-04 -1.715909e-04 -1.934716e-04 -1.813268e-04
          -1.481962e-04 -1.470999e-04 -7.575061e-05 3.405235e-06 -1.387597e-04 -1.910516e-04
          -1.905879e-04 -1.974022e-04 -1.559346e-04 -1.459628e-04 -1.154880e-04 -1.104220e-04
          -1.097620e-04 -1.315829e-04 -1.579327e-04 -1.701756e-04 -1.898500e-04 -2.032250e-04
          -1.133497e-04 -3.889992e-05 -2.532047e-05 -3.664097e-05 -6.152809e-05 -8.383472e-05
          -9.938165e-05 -1.706960e-04 -2.178142e-04 -2.008638e-05 -1.962211e-04 -2.264005e-04
          -2.071897e-04 -2.202626e-04 -2.243786e-04 -2.102240e-04 -1.931670e-04 -1.401163e-04
          1.459751e-04 2.965273e-04 3.519473e-04 2.778055e-04 2.034774e-04 8.508360e-05
          1.458927e-04 -1.623440e-04 -1.653610e-04 -1.990526e-04 -1.337024e-04 -1.465780e-04
          -9.468637e-05 1.294135e-05 -1.612905e-04 -3.645470e-04 -5.599107e-05 -4.950798e-05
          -7.040127e-05 -4.987868e-05 -1.565914e-04 4.224300e-06 -7.484353e-05 -9.139533e-05
          -1.032134e-04 -2.519970e-04 -1.949256e-04 -1.521977e-04 -8.241586e-05 -1.407721e-05
          -1.655646e-04 -2.757315e-04 -3.018219e-04 -2.686253e-04 -1.843194e-04 -8.452436e-05
          -1.301194e-05 1.729801e-04 2.619714e-04 -4.529489e-04 1.448340e-05 2.628730e-05
          -7.643752e-05 -4.654995e-05 -3.330950e-05 -7.598232e-05 -1.279394e-04 -2.907329e-04
          2.296818e-04 1.156283e-04 7.896908e-05 1.371767e-04 1.885754e-04 2.584542e-04
          2.679617e-05 -9.260137e-05 -1.349639e-04 -1.015569e-04 -1.477628e-04 -1.308235e-04
          -1.211057e-04 -1.641256e-04 -1.417299e-05 1.539165e-04 -1.768902e-04 -2.894870e-04
          -2.856800e-04 -3.002306e-04 -1.917995e-04 -1.643198e-04 -9.528902e-05 -8.330041e-05
          -8.221497e-05 -1.375587e-04 -2.030188e-04 -2.333854e-04 -2.808585e-04 -3.144458e-04
          -1.026741e-04 6.864835e-05 9.756462e-05 7.200398e-05 1.159233e-05 -5.193459e-05
          -9.904322e-05 -2.580082e-04 -3.590669e-04 1.253133e-04 -2.340041e-04 -2.485468e-04
          -1.825527e-04 -2.083507e-04 -2.181029e-04 -1.855676e-04 -1.465806e-04 -3.180229e-05
          2.307923e-04 3.769196e-04 4.300447e-04 3.584655e-04 2.853977e-04 1.660184e-04
          2.026279e-04 -1.443644e-04 -1.336111e-04 -1.409207e-04 -7.231544e-05 -8.849110e-05
          -5.631701e-05 3.921815e-05 -1.314894e-04 -3.323546e-04 -8.286324e-05 -1.281158e-04
          -1.531358e-04 -1.318552e-04 -2.137440e-04 2.511702e-05 -4.855055e-05 -6.483436e-05
          -8.089995e-05 -3.183244e-04 -2.770660e-04 -2.353566e-04 -1.654790e-04 -9.057238e-05
          -1.852897e-04 -2.472898e-04 -2.695182e-04 -2.368414e-04 -1.541893e-04 -5.737592e-05
          9.338320e-06 1.856079e-04 2.599415e-04 -4.524768e-04 3.524707e-05 7.988109e-05
          -1.343805e-05 1.704836e-05 2.990959e-05 -1.202509e-05 -6.332074e-05 -2.325625e-04
          1.851443e-04 1.227825e-04 1.029188e-04 1.351812e-04 1.627650e-04 1.983004e-04
          4.847782e-05 -6.467239e-05 -8.755999e-05 -6.022628e-05 -8.352551e-05 -7.375169e-05
          -6.369181e-05 -8.260363e-05 8.845596e-07 9.238707e-05 -1.193521e-04 -2.133535e-04
          -2.144997e-04 -2.218768e-04 -1.505573e-04 -8.504966e-05 -4.454430e-05 -3.807909e-05
          -4.023277e-05 -1.267775e-04 -1.708400e-04 -1.871576e-04 -2.117176e-04 -2.246428e-04
          -7.700660e-05 4.438903e-05 6.234807e-05 4.847484e-05 1.572514e-05 -1.855240e-05
          -4.504074e-05 -1.352392e-04 -1.988862e-04 5.045560e-05 -1.407782e-04 -1.387725e-04
          -1.011754e-04 -1.148784e-04 -1.200400e-04 -1.023172e-04 -8.126422e-05 -2.269264e-05
          1.602450e-05 8.020152e-05 1.021276e-04 7.044167e-05 4.024117e-05 -5.610647e-06
          6.034286e-05 -4.816388e-06 1.105227e-05 6.516840e-06 3.600775e-05 3.031586e-05
          5.173850e-05 9.687811e-05 1.837130e-05 -7.545711e-05 3.962481e-05 2.712575e-05
          1.713342e-05 2.656045e-05 -8.347464e-06 9.264847e-05 6.092761e-05 5.394083e-05
          4.714617e-05 -5.103761e-05 -3.275107e-05 -1.496442e-05 1.522228e-05 4.685853e-05
          9.216424e-07 -3.137572e-05 -4.245302e-05 -2.799161e-05 6.651166e-06 4.413614e-05
          7.014353e-05 1.514282e-04 1.879063e-04 -1.254678e-04 7.400006e-05 9.449734e-05
          5.832896e-05 7.314144e-05 7.923674e-05 6.109467e-05 3.865474e-05 -3.323550e-05
          -8.388878e-05 -2.508859e-05 -7.127485e-06 -3.676937e-05 -6.267610e-05 -9.829670e-05
          2.526223e-05 8.129492e-05 1.166687e-04 1.176825e-04 1.452165e-04 1.372354e-04
          1.394745e-04 1.680387e-04 8.923266e-05 -3.878044e-06 1.158847e-04 1.218183e-04
          1.149893e-04 1.238183e-04 9.090220e-05 1.650390e-04 1.344819e-04 1.282091e-04
          1.229446e-04 5.434069e-05 7.318911e-05 8.874646e-05 1.154090e-04 1.413905e-04
          8.623154e-05 4.364179e-05 3.137485e-05 4.490580e-05 7.541885e-05 1.045943e-04
          1.244819e-04 2.041803e-04 2.448212e-04 -3.197632e-05 1.581613e-04 1.891788e-04
          1.630709e-04 1.784992e-04 1.841445e-04 1.674197e-04 1.467222e-04 8.049948e-05
          -1.827258e-04 -2.208386e-04 -2.366271e-04 -2.183631e-04 -1.966622e-04 -1.565045e-04
          -9.636602e-05 1.176006e-04 1.295660e-04 1.282838e-04 1.092314e-04 1.151697e-04
          1.149322e-04 9.299337e-05 1.326499e-04 1.777757e-04 1.253224e-04 1.526085e-04
          1.610784e-04 1.554815e-04 1.761288e-04 9.968002e-05 1.192151e-04 1.237164e-04
          1.287486e-04 2.086902e-04 1.996122e-04 1.879702e-04 1.688047e-04 1.466062e-04
          1.600148e-04 1.646307e-04 1.683596e-04 1.599142e-04 1.361384e-04 1.041751e-04
          8.252006e-05 4.218594e-05 2.926050e-05 2.175808e-04 7.046360e-05 5.853258e-05
          8.898261e-05 8.291360e-05 8.002920e-05 9.133037e-05 1.049784e-04 1.529881e-04
          -2.672602e-04 -2.634290e-04 -2.638871e-04 -2.668576e-04 -2.644166e-04 -2.507578e-04
          -1.306319e-04 8.531287e-05 8.883898e-05 5.313529e-05 4.691177e-05 5.160401e-05
          7.508341e-05 8.555684e-05 7.601750e-05 6.657273e-05 1.608072e-04 2.536763e-04
          2.624920e-04 2.611032e-04 2.274591e-04 9.595740e-05 8.919275e-05 8.938392e-05
          9.655825e-05 2.470747e-04 2.704657e-04 2.703319e-04 2.677582e-04 2.539603e-04
          1.619657e-04 8.109081e-05 7.344653e-05 7.385302e-05 7.238329e-05 6.702615e-05
          6.709762e-05 8.478454e-05 1.125211e-04 1.279095e-04 8.087916e-05 4.158557e-05
          3.855551e-05 3.978315e-05 4.043298e-05 4.023785e-05 4.037444e-05 5.478016e-05
          -2.295629e-04 -9.106941e-05 -4.410990e-05 -1.141007e-04 -1.768739e-04 -2.640011e-04
          -3.073502e-05 2.183274e-05 4.372025e-05 -1.634394e-05 3.643909e-05 2.468351e-05
          6.403299e-05 1.494790e-04 -2.331416e-05 -2.202979e-04 1.739187e-04 3.001606e-04
          2.936710e-04 3.106469e-04 1.764813e-04 1.525320e-04 7.184207e-05 5.733788e-05
          5.575993e-05 1.135553e-04 1.929130e-04 2.303677e-04 2.887156e-04 3.313467e-04
          8.033678e-05 -1.208802e-04 -1.544258e-04 -1.240367e-04 -5.080897e-05 2.933252e-05
          9.034786e-05 2.797268e-04 3.965965e-04 -2.083606e-04 1.816945e-04 1.667609e-04
          7.776995e-05 1.072100e-04 1.194317e-04 8.068878e-05 3.421753e-05 -9.791163e-05
          2.516574e-05 -9.287940e-05 -1.342815e-04 -7.532288e-05 -1.883629e-05 6.579841e-05
          -5.730846e-05 4.092276e-05 2.558565e-05 5.577326e-05 6.002403e-06 1.914342e-05
          -1.512242e-06 -7.014114e-05 7.391556e-05 2.389138e-04 -4.447964e-05 -9.515455e-05
          -8.374069e-05 -9.950282e-05 -3.766130e-06 -6.606631e-05 -1.604407e-07 1.264160e-05
          1.855625e-05 6.344585e-05 9.155816e-06 -2.353579e-05 -7.606883e-05 -1.220065e-04
          3.827615e-05 1.620652e-04 1.864084e-04 1.601422e-04 9.539740e-05 2.188673e-05
          -3.156175e-05 -1.848650e-04 -2.688659e-04 2.679373e-04 -1.007870e-04 -1.114995e-04
          -3.549641e-05 -5.995830e-05 -7.038241e-05 -3.684153e-05 3.958580e-06 1.279047e-04
          9.342939e-05 3.450994e-04 4.317112e-04 3.067844e-04 1.859219e-04 -1.337512e-06
          2.283301e-04 -5.557493e-05 1.985699e-06 -1.812550e-05 9.701661e-05 6.474737e-05
          8.743715e-05 2.247262e-04 -8.426407e-05 -4.434661e-04 6.336792e-05 7.201156e-05
          3.880366e-05 7.452411e-05 -8.731363e-05 2.069440e-04 7.346481e-05 4.602407e-05
          2.458211e-05 -2.516468e-04 -1.633386e-04 -9.334388e-05 2.248603e-05 1.367913e-04
          -1.030510e-04 -2.798719e-04 -3.257543e-04 -2.692573e-04 -1.304458e-04 2.444321e-05
          1.321831e-04 4.514229e-04 6.069361e-04 -5.757634e-04 2.587563e-04 3.392624e-04
          1.898335e-04 2.456703e-04 2.675946e-04 1.953793e-04 1.077329e-04 -1.755958e-04
          9.545654e-05 9.633172e-05 9.501093e-05 9.532367e-05 9.518859e-05 9.208936e-05
          8.201438e-05 4.300516e-05 6.590865e-05 1.013382e-04 1.089047e-04 1.077205e-04
          1.056914e-04 1.083569e-04 1.051987e-04 9.503480e-05 8.654973e-06 -8.152243e-05
          -8.990227e-05 -8.765805e-05 -4.910908e-05 1.015648e-04 1.087535e-04 1.085034e-04
          1.003151e-04 -6.654311e-05 -9.162715e-05 -9.127418e-05 -8.725934e-05 -7.190205e-05
          2.017009e-05 9.861212e-05 1.034588e-04 1.042201e-04 1.044013e-04 1.009558e-04
          9.470715e-05 9.041136e-05 7.036793e-05 2.516115e-05 5.285372e-05 9.907172e-05
          1.110171e-04 1.146704e-04 1.152313e-04 1.146790e-04 1.135341e-04 9.809286e-05
          -4.874631e-05 -3.130581e-05 -2.625056e-05 -3.486137e-05 -4.126024e-05 -4.847449e-05
          2.939970e-06 3.794284e-05 4.874638e-05 4.682912e-05 5.459144e-05 5.670411e-05
          8.361019e-05 1.087118e-04 8.608817e-05 5.546531e-05 7.504162e-05 6.041982e-05
          5.673599e-05 5.958886e-05 5.703190e-05 1.091585e-04 1.033156e-04 1.015170e-04
          9.849037e-05 4.647754e-05 4.727445e-05 5.177715e-05 6.035081e-05 7.079592e-05
          7.174165e-05 7.343024e-05 7.044952e-05 7.439051e-05 8.214637e-05 8.760623e-05
          9.146549e-05 1.154857e-04 1.240048e-04 2.617845e-05 5.758756e-05 6.281686e-05
          5.729733e-05 6.281487e-05 6.508528e-05 6.055971e-05 5.468643e-05 3.691751e-05
          -1.853677e-04 -1.845791e-04 -1.847113e-04 -1.855549e-04 -1.824364e-04 -1.701915e-04
          -9.571249e-05 3.629171e-05 2.810241e-05 -5.083282e-06 -1.172604e-05 -2.572866e-06
          4.708894e-05 7.485466e-05 7.400422e-05 7.072365e-05 1.217805e-04 1.741102e-04
          1.788597e-04 1.775953e-04 1.582879e-04 8.396102e-05 8.313535e-05 8.350389e-05
          8.778668e-05 1.745285e-04 1.875822e-04 1.870775e-04 1.850922e-04 1.767542e-04
          1.256772e-04 8.054382e-05 7.636630e-05 7.602717e-05 7.318680e-05 6.750027e-05
          6.698663e-05 7.601960e-05 9.043937e-05 9.485698e-05 2.493563e-05 -1.725007e-05
          -2.005842e-05 -1.989810e-05 -1.899989e-05 -1.801621e-05 -1.703771e-05 -1.119637e-06
          -1.868248e-04 -2.032039e-04 -2.080552e-04 -1.999372e-04 -1.888930e-04 -1.643791e-04
          -1.272466e-04 -1.251898e-05 -4.337795e-05 -9.148822e-05 -1.092291e-04 -9.374494e-05
          -2.303525e-05 9.118881e-06 3.443303e-05 6.146522e-05 9.341557e-05 1.601417e-04
          1.682532e-04 1.636042e-04 1.458165e-04 2.211216e-05 3.013973e-05 3.252242e-05
          3.988642e-05 1.782855e-04 1.906898e-04 1.856957e-04 1.752084e-04 1.566344e-04
          1.042429e-04 5.705114e-05 5.571764e-05 5.106945e-05 3.868597e-05 2.483059e-05
          2.011220e-05 6.427366e-06 1.185133e-05 1.000736e-04 -5.281399e-05 -1.250979e-04
          -1.246447e-04 -1.299445e-04 -1.305166e-04 -1.242746e-04 -1.166042e-04 -7.471828e-05
          -1.476704e-04 -1.592499e-04 -1.623951e-04 -1.565100e-04 -1.484296e-04 -1.300521e-04