<?xml version="1.0"?>
<VTKFile type="RectilinearGrid" version="0.1" byte_order="LittleEndian">
  <RectilinearGrid WholeExtent="0 47 0 47 0 47">
    <Piece Extent="0 47 0 47 0 47">
      <PointData Scalars="concentration">
        <DataArray type="Float32" Name="concentration" NumberOfComponents="1" format="ascii">
          -2.294834e-04 -1.896681e-04 -1.771061e-04 -2.007334e-04 -2.212029e-04 -2.451973e-04
          -9.704743e-05 1.070043e-04 1.431845e-04 1.258360e-04 1.404683e-04 1.141140e-04
          -1.272629e-05 -8.035404e-05 -1.475625e-04 -2.044260e-04 5.235816e-05 2.390836e-04
          2.522893e-04 2.563816e-04 1.646385e-04 -7.922398e-05 -1.228704e-04 -1.275376e-04
          -1.155486e-04 1.595337e-04 2.200917e-04 2.297481e-04 2.404705e-04 2.278256e-04
          8.780266e-06 -1.768630e-04 -1.965471e-04 -1.868751e-04 -1.625580e-04 -1.351628e-04
          -1.131864e-04 -4.490159e-05 2.983333e-05 -4.429198e-05 1.719752e-04 1.837809e-04
          1.571127e-04 1.639812e-04 1.649439e-04 1.520333e-04 1.371231e-04 9.722359e-05
          -2.730667e-04 -2.326535e-04 -2.272822e-04 -2.498838e-04 -2.643636e-04 -2.741639e-04
          -1.479139e-05 3.418894e-04 4.486447e-04 4.941813e-04 5.205871e-04 4.989898e-04
          4.061282e-04 3.633041e-04 2.838499e-04 1.941661e-04 2.838148e-04 3.032203e-04
          3.018652e-04 3.104505e-04 3.019090e-04 3.571181e-04 3.322028e-04 3.275755e-04
          3.235511e-04 2.724623e-04 2.808031e-04 2.895536e-04 3.065690e-04 3.215634e-04
          2.825395e-04 2.466407e-04 2.338462e-04 2.448428e-04 2.635731e-04 2.687769e-04
          2.684805e-04 3.362012e-04 3.781936e-04 2.122181e-04 4.208678e-04 5.196795e-04
          5.299487e-04 5.473779e-04 5.512928e-04 5.384155e-04 5.221156e-04 4.622458e-04
          -2.289448e-04 1.899127e-07 6.863104e-05 -4.710584e-05 -1.498994e-04 -2.944118e-04
          1.706203e-04 3.588335e-04 5.235250e-04 5.655695e-04 6.803324e-04 6.389061e-04
          5.906213e-04 6.687218e-04 3.558074e-04 -1.191036e-05 4.097443e-04 3.874923e-04
          3.569028e-04 3.933725e-04 2.868569e-04 6.485847e-04 5.301470e-04 5.049975e-04
          4.803718e-04 1.292418e-04 1.889411e-04 2.499158e-04 3.555677e-04 4.641629e-04
          2.967267e-04 1.710752e-04 1.258826e-04 1.794485e-04 3.000334e-04 4.142478e-04
          4.884516e-04 7.952997e-04 9.441284e-04 -1.391905e-04 6.737628e-04 8.480429e-04
          7.556935e-04 8.176726e-04 8.393571e-04 7.726176e-04 6.904395e-04 4.157257e-04
          -4.679398e-05 -2.098590e-04 -2.749669e-04 -1.950387e-04 -1.143817e-04 1.183027e-05
          -1.457597e-05 3.658010e-04 4.474348e-04 5.726633e-04 5.193402e-04 5.184961e-04
          3.861375e-04 2.270450e-04 3.990878e-04 5.941671e-04 1.184265e-04 -3.111155e-05
          -2.096797e-05 -3.777998e-05 1.481797e-04 2.203227e-04 3.146932e-04 3.316035e-04
          3.310542e-04 2.174382e-04 1.118837e-04 6.508895e-05 -4.758869e-06 -5.523872e-05
          2.611782e-04 5.079688e-04 5.427544e-04 5.088480e-04 4.178789e-04 2.996511e-04
          2.065243e-04 6.605190e-07 -1.234103e-04 6.010788e-04 2.065870e-04 3.184422e-04
          4.628119e-04 4.383733e-04 4.248460e-04 4.692336e-04 5.220399e-04 6.622807e-04
          -3.049359e-05 1.286190e-04 1.807522e-04 9.803045e-05 1.876246e-05 -1.023491e-04
          1.235934e-04 1.253341e-04 2.211484e-04 2.460650e-04 3.257944e-04 2.743751e-04
          1.095254e-04 8.058498e-05 -1.385983e-04 -3.737776e-04 3.522713e-05 1.356631e-04
          1.249030e-04 1.488144e-04 1.990148e-05 6.214956e-05 -4.018494e-05 -5.864197e-05
          -6.477228e-05 -8.615529e-05 -8.984928e-06 3.416074e-05 1.034893e-04 1.600787e-04
          -7.996977e-05 -2.702622e-04 -3.064185e-04 -2.690218e-04 -1.768868e-04 -7.654799e-05
          -9.072794e-06 2.036168e-04 3.318542e-04 -3.316912e-04 3.575301e-04 4.769622e-04
          3.930575e-04 4.292534e-04 4.408697e-04 3.924024e-04 3.339628e-04 1.368480e-04
          3.053918e-05 1.907963e-04 2.497367e-04 1.653930e-04 7.998282e-05 -5.568321e-05
          6.826266e-05 -7.942892e-05 -4.265115e-05 -6.740707e-05 3.928106e-06 -5.204000e-05
          -2.465616e-04 -2.956836e-04 -5.061319e-04 -7.158483e-04 -1.718277e-04 5.993159e-05
          6.027021e-05 8.082893e-05 -1.157921e-04 -3.090186e-04 -4.273857e-04 -4.461351e-04
          -4.397050e-04 -2.045655e-04 -8.520390e-05 -4.072504e-05 2.448995e-05 6.017454e-05
          -3.237688e-04 -6.331564e-04 -6.747211e-04 -6.380246e-04 -5.400045e-04 -4.194567e-04
          -3.325234e-04 -1.184605e-04 3.579773e-05 -5.619404e-04 1.438080e-04 1.944309e-04
          7.871091e-05 1.063909e-04 1.157057e-04 6.663716e-05 8.681049e-06 -1.752039e-04
          2.937845e-05 -1.873154e-04 -2.577846e-04 -1.532552e-04 -5.756438e-05 8.272623e-05
          -1.946410e-04 -4.179937e-05 -9.780066e-05 -7.709911e-05 -1.747523e-04 -1.749497e-04
          -3.580669e-04 -5.801597e-04 -3.203966e-04 6.902453e-06 -2.996788e-04 -1.763507e-04
          -1.355743e-04 -1.675423e-04 -8.662308e-05 -5.705853e-04 -4.787804e-04 -4.562188e-04
          -4.257652e-04 5.763383e-05 2.033290e-05 -3.940519e-05 -1.437481e-04 -2.634426e-04
          -1.940925e-04 -1.569121e-04 -1.233982e-04 -1.714967e-04 -2.820259e-04 -3.944231e-04
          -4.717838e-04 -7.449496e-04 -8.490750e-04 2.721478e-04 -2.928220e-04 -3.498802e-04
          -2.383306e-04 -2.926694e-04 -3.156043e-04 -2.560687e-04 -1.823669e-04 5.165911e-05
          -2.432616e-04 8.609494e-05 2.000296e-04 3.304115e-05 -1.241038e-04 -3.550243e-04
          7.590969e-05 -1.292967e-05 5.409394e-05 -3.495991e-05 1.023682e-04 5.305435e-05
          3.100725e-05 1.675808e-04 -2.468531e-04 -7.102017e-04 1.807818e-04 4.291065e-04
          4.083343e-04 4.513161e-04 1.486844e-04 1.589532e-04 -3.773709e-05 -7.351525e-05
          -8.134342e-05 -2.676637e-05 1.505688e-04 2.406691e-04 3.825609e-04 4.929202e-04
          -5.658192e-05 -4.918971e-04 -5.672143e-04 -4.935753e-04 -3.121801e-04 -1.079065e-04
          4.188151e-05 4.813639e-04 7.453936e-04 -6.858085e-04 3.926106e-04 4.284833e-04
          2.180142e-04 2.864799e-04 3.138762e-04 2.193274e-04 1.054256e-04 -2.382475e-04
          -2.345034e-04 -2.568984e-04 -2.681246e-04 -2.581881e-04 -2.434802e-04 -2.111284e-04
          -1.010328e-04 1.611870e-04 1.879771e-04 1.875293e-04 1.758354e-04 1.780379e-04
          1.682125e-04 1.469624e-04 1.632833e-04 1.820480e-04 1.726959e-04 2.134173e-04
          2.211628e-04 2.181145e-04 2.269016e-04 1.530838e-04 1.630974e-04 1.657815e-04
          1.702933e-04 2.509690e-04 2.492273e-04 2.415497e-04 2.291367e-04 2.119271e-04
          1.996103e-04 1.829917e-04 1.824096e-04 1.778135e-04 1.620345e-04 1.369985e-04
          1.202667e-04 1.031219e-04 1.047771e-04 2.263775e-04 1.363030e-04 1.354209e-04
          1.601575e-04 1.583649e-04 1.570621e-04 1.636344e-04 1.714530e-04 2.018113e-04
          -1.986980e-04 -1.628269e-04 -1.561504e-04 -1.735382e-04 -1.834848e-04 -1.878904e-04
          -4.453464e-06 1.976949e-04 2.498323e-04 2.608873e-04 2.788540e-04 2.846327e-04
          3.471445e-04 4.022596e-04 3.491992e-04 2.736954e-04 2.827448e-04 2.246425e-04
          2.152924e-04 2.220706e-04 2.372113e-04 4.030617e-04 3.955957e-04 3.922346e-04
          3.826633e-04 2.131503e-04 2.029420e-04 2.114013e-04 2.296984e-04 2.555183e-04
          2.918755e-04 3.225785e-04 3.165822e-04 3.251147e-04 3.378402e-04 3.386503e-04
          3.377101e-04 3.905038e-04 4.048536e-04 1.888054e-04 2.416189e-04 2.765366e-04
          2.792234e-04 2.944117e-04 3.001722e-04 2.908604e-04 2.786358e-04 2.400960e-04
          -8.866613e-05 -4.977718e-05 -4.230831e-05 -5.916927e-05 -6.907484e-05 -7.610489e-05
          7.131397e-05 1.701691e-04 2.179710e-04 2.423461e-04 2.646538e-04 2.817642e-04
          4.165855e-04 5.226364e-04 4.735166e-04 3.894289e-04 2.969660e-04 1.270005e-04
          1.063430e-04 1.148130e-04 1.709778e-04 5.207038e-04 5.252813e-04 5.218201e-04
          5.023642e-04 1.321115e-04 9.346550e-05 1.033198e-04 1.276137e-04 1.733093e-04
          3.182625e-04 4.430181e-04 4.433839e-04 4.524006e-04 4.647428e-04 4.628537e-04
          4.579565e-04 5.059501e-04 4.934718e-04 1.950938e-04 2.114405e-04 2.568461e-04
          2.638690e-04 2.820785e-04 2.897028e-04 2.803131e-04 2.674217e-04 2.212494e-04
          5.488558e-05 5.664467e-05 5.699512e-05 5.875951e-05 6.158218e-05 6.637233e-05
          4.967629e-05 -2.633729e-05 -4.000226e-05 -4.122444e-05 -4.048413e-05 -1.901163e-05
          1.096096e-04 1.948210e-04 2.040437e-04 1.952987e-04 7.868787e-05 -4.618587e-05
          -5.877041e-05 -5.770830e-05 -1.061945e-05 1.964411e-04 2.139767e-04 2.144451e-04
          2.033945e-04 -2.006675e-05 -5.281257e-05 -5.192352e-05 -4.587742e-05 -2.448082e-05
          9.860816e-05 2.046567e-04 2.117090e-04 2.115541e-04 2.079546e-04 1.998841e-04
          1.935182e-04 1.879740e-04 1.569535e-04 5.929957e-05 -4.059949e-05 -5.266746e-05
          -4.755038e-05 -4.407503e-05 -4.134554e-05 -4.018192e-05 -3.949877e-05 -3.758523e-05
          1.354980e-04 1.180587e-04 1.169948e-04 1.274221e-04 1.339701e-04 1.387393e-04
          6.306082e-06 -1.929215e-04 -2.557888e-04 -2.876887e-04 -3.012788e-04 -2.841802e-04
          -1.994946e-04 -1.522317e-04 -1.120841e-04 -7.099372e-05 -1.242663e-04 -1.493863e-04
          -1.508464e-04 -1.550879e-04 -1.479033e-04 -1.473270e-04 -1.329660e-04 -1.306081e-04
          -1.302715e-04 -1.336520e-04 -1.406011e-04 -1.440987e-04 -1.503420e-04 -1.540561e-04
          -1.226671e-04 -9.388618e-05 -8.699756e-05 -9.210777e-05 -1.010562e-04 -1.033194e-04
          -1.020761e-04 -1.333190e-04 -1.572016e-04 -1.048645e-04 -2.356584e-04 -2.990648e-04
          -3.073332e-04 -3.152004e-04 -3.165657e-04 -3.104029e-04 -3.027004e-04 -2.716364e-04
          1.141289e-04 1.643815e-04 1.865050e-04 1.636714e-04 1.389929e-04 9.763565e-05
          4.174927e-05 -2.104253e-04 -2.652502e-04 -3.152580e-04 -3.005420e-04 -2.866189e-04
          -1.652635e-04 -6.271926e-05 -1.035281e-04 -1.589763e-04 -7.026239e-05 -8.703966e-05
          -9.692868e-05 -9.206945e-05 -1.311126e-04 -5.938029e-05 -7.930821e-05 -8.405725e-05
          -8.897759e-05 -1.560013e-04 -1.376772e-04 -1.224408e-04 -9.788274e-05 -7.191955e-05
          -1.110201e-04 -1.350858e-04 -1.410620e-04 -1.312639e-04 -1.043485e-04 -6.708779e-05
          -3.720059e-05 1.869196e-05 3.788998e-05 -2.330302e-04 -1.752368e-04 -2.350817e-04
          -2.849878e-04 -2.779316e-04 -2.729133e-04 -2.855690e-04 -3.008042e-04 -3.393726e-04
          8.883089e-05 1.717247e-05 -5.637150e-06 3.402719e-05 7.187842e-05 1.289208e-04
          -1.246239e-05 -1.165777e-04 -1.817098e-04 -1.993140e-04 -2.361610e-04 -1.943277e-04
          -1.008552e-05 7.539357e-05 1.862445e-04 2.909449e-04 1.307590e-05 -1.307132e-04
          -1.358077e-04 -1.463118e-04 -5.308692e-05 8.530852e-05 1.460023e-04 1.549680e-04
          1.493016e-04 -1.129923e-05 -7.116539e-05 -8.997255e-05 -1.169538e-04 -1.262067e-04
          7.832074e-05 2.477363e-04 2.703074e-04 2.528332e-04 2.081381e-04 1.581795e-04
          1.243408e-04 2.070311e-05 -6.373502e-05 1.632734e-04 -2.370855e-04 -3.103869e-04
          -2.717353e-04 -2.865497e-04 -2.899777e-04 -2.666882e-04 -2.391064e-04 -1.456902e-04
          2.646871e-05 1.247451e-04 1.589417e-04 1.145827e-04 7.427967e-05 1.621209e-05
          9.104581e-05 -1.037154e-04 -1.285747e-04 -1.745516e-04 -1.371113e-04 -1.081269e-04
          1.414343e-04 3.490599e-04 2.512042e-04 1.077562e-04 1.732719e-04 3.825924e-05
          1.118000e-05 2.446960e-05 1.064994e-05 3.523725e-04 3.268619e-04 3.176996e-04
          2.974875e-04 -5.081030e-05 -5.213906e-05 -2.422445e-05 2.656738e-05 9.388614e-05
          1.363650e-04 1.848870e-04 1.753209e-04 1.957442e-04 2.412576e-04 2.880573e-04
          3.229021e-04 4.391002e-04 4.618914e-04 -1.226921e-04 -2.053490e-05 -5.883859e-05
          -1.175774e-04 -9.330884e-05 -8.061472e-05 -1.051105e-04 -1.358861e-04 -2.240810e-04
          7.259069e-05 1.438941e-05 -5.493848e-06 2.781471e-05 6.109192e-05 1.127500e-04
          1.405930e-05 -6.287239e-05 -1.095721e-04 -1.158158e-04 -1.443234e-04 -1.015863e-04
          1.004978e-04 2.043359e-04 2.964926e-04 3.741700e-04 8.244682e-05 -1.015279e-04
          -1.119271e-04 -1.195454e-04 -1.471331e-05 2.123258e-04 2.711539e-04 2.786389e-04
          2.679907e-04 1.350282e-05 -5.440704e-05 -6.974285e-05 -8.911936e-05 -8.557725e-05
          1.499499e-04 3.463891e-04 3.681538e-04 3.539574e-04 3.148857e-04 2.670640e-04
          2.333319e-04 1.466264e-04 6.238048e-05 2.024508e-04 -1.650535e-04 -2.171426e-04
          -1.776482e-04 -1.869906e-04 -1.883361e-04 -1.686893e-04 -1.459320e-04 -7.080733e-05
          1.319622e-04 8.469405e-05 7.140237e-05 9.880822e-05 1.243116e-04 1.606113e-04
          2.059670e-05 -1.488517e-04 -2.143336e-04 -2.345649e-04 -2.601824e-04 -2.213597e-04
          -3.292456e-05 6.762773e-05 1.504506e-04 2.226796e-04 -9.645758e-06 -1.572483e-04
          -1.662413e-04 -1.732889e-04 -9.565477e-05 7.543743e-05 1.234002e-04 1.294074e-04
          1.215067e-04 -7.114043e-05 -1.228386e-04 -1.346345e-04 -1.500407e-04 -1.472667e-04
          3.704426e-05 1.926747e-04 2.114507e-04 1.994265e-04 1.688956e-04 1.357814e-04
          1.138185e-04 3.943528e-05 -3.203967e-05 7.823975e-05 -2.396582e-04 -3.075320e-04
          -2.856156e-04 -2.957864e-04 -2.969427e-04 -2.807708e-04 -2.617425e-04 -1.963125e-04
          9.770770e-05 3.580358e-04 4.532382e-04 3.264679e-04 2.035610e-04 1.433939e-05
          1.761262e-04 -2.735811e-04 -2.998345e-04 -3.962858e-04 -2.915217e-04 -2.921690e-04
          -8.179022e-05 1.775303e-04 -1.156703e-04 -4.698350e-04 5.536237e-05 5.938149e-05
          2.268986e-05 5.626564e-05 -1.245039e-04 1.734553e-04 4.568122e-05 1.825496e-05
          -3.236772e-06 -2.756658e-04 -1.798445e-04 -1.063260e-04 1.432412e-05 1.335363e-04
          -1.202207e-04 -3.042509e-04 -3.495237e-04 -2.931751e-04 -1.532358e-04 9.187605e-06
          1.290535e-04 4.538508e-04 6.052307e-04 -6.649925e-04 8.695640e-06 -2.656536e-05
          -2.056254e-04 -1.527266e-04 -1.278912e-04 -1.996776e-04 -2.867771e-04 -5.470935e-04
          1.448465e-04 1.593983e-05 -2.281020e-05 4.447414e-05 1.063055e-04 1.956827e-04
          -6.637174e-05 -2.114314e-04 -3.158149e-04 -3.439506e-04 -4.093575e-04 -3.649074e-04
          -2.131959e-04 -1.762466e-04 9.662237e-06 2.095245e-04 -1.325101e-04 -2.287131e-04
          -2.222489e-04 -2.421218e-04 -1.392768e-04 -1.619923e-04 -7.823165e-05 -6.352517e-05
          -5.924022e-05 -5.615176e-05 -1.192751e-04 -1.533758e-04 -2.082274e-04 -2.513450e-04
          -4.802329e-05 1.162728e-04 1.478461e-04 1.172431e-04 4.459689e-05 -2.968090e-05
          -7.860493e-05 -2.569032e-04 -3.682011e-04 1.595263e-04 -4.050091e-04 -5.186193e-04
          -4.603367e-04 -4.921763e-04 -5.017317e-04 -4.625596e-04 -4.150200e-04 -2.548432e-04
          3.016863e-05 3.895543e-06 5.201650e-06 2.018721e-05 3.108185e-05 4.487764e-05
          -1.338322e-04 -3.728682e-04 -5.133015e-04 -6.288603e-04 -6.629219e-04 -6.288036e-04
          -4.603720e-04 -3.695008e-04 -3.018589e-04 -2.253468e-04 -1.726959e-04 -7.431829e-05
          -6.429043e-05 -7.442677e-05 -1.239398e-04 -3.483096e-04 -3.358049e-04 -3.318959e-04
          -3.188911e-04 -7.255072e-05 -4.417982e-05 -4.974090e-05 -6.482538e-05 -9.283316e-05
          -1.862296e-04 -2.625583e-04 -2.596282e-04 -2.686016e-04 -2.829595e-04 -2.820219e-04
          -2.702448e-04 -3.089598e-04 -3.149071e-04 -1.829449e-04 -4.585707e-04 -6.442406e-04
          -6.779995e-04 -6.952974e-04 -6.975346e-04 -6.870170e-04 -6.731859e-04 -5.978783e-04
          -5.005937e-05 -1.353292e-05 1.254020e-05 -4.510677e-06 -2.484394e-05 -5.716748e-05
          -1.853984e-04 -4.805271e-04 -6.469355e-04 -8.211635e-04 -8.370708e-04 -8.089190e-04
          -6.287802e-04 -5.044084e-04 -5.085709e-04 -5.060955e-04 -2.005672e-04 2.845020e-05
          4.168838e-05 3.719705e-05 -1.108047e-04 -4.780365e-04 -5.100853e-04 -5.127378e-04
          -4.933369e-04 -7.655852e-05 1.116561e-05 2.306382e-05 3.184633e-05 1.118339e-05
          -2.758265e-04 -5.095952e-04 -5.247873e-04 -5.206378e-04 -4.992720e-04 -4.516216e-04
          -4.016976e-04 -3.544244e-04 -2.933762e-04 -3.985839e-04 -5.016831e-04 -7.383731e-04
          -8.303908e-04 -8.392895e-04 -8.371422e-04 -8.440885e-04 -8.507262e-04 -8.253019e-04
          -1.108012e-05 -2.994313e-04 -3.886450e-04 -2.433166e-04 -1.072678e-04 9.766699e-05
          -3.388919e-04 -3.165920e-04 -5.112801e-04 -5.930000e-04 -7.443039e-04 -6.795647e-04
          -5.512869e-04 -6.125459e-04 -2.236221e-04 2.265043e-04 -2.692113e-04 -2.007969e-04
          -1.581135e-04 -2.049322e-04 -7.749769e-05 -5.759069e-04 -4.238660e-04 -3.914198e-04
          -3.578639e-04 1.390355e-04 6.996332e-05 -8.412072e-06 -1.433262e-04 -2.868953e-04
          -1.092599e-04 1.685166e-05 6.906785e-05 1.357170e-06 -1.566684e-04 -3.158191e-04
          -4.169183e-04 -7.905180e-04 -9.637158e-04 3.955626e-04 -7.250420e-04 -9.775516e-04
          -8.535282e-04 -9.283418e-04 -9.538676e-04 -8.684447e-04 -7.636072e-04 -3.994392e-04
          -1.610470e-04 7.021607e-05 1.524688e-04 3.842005e-05 -6.795369e-05 -2.232561e-04
          3.380502e-05 -1.418398e-04 -1.518792e-04 -2.614384e-04 -1.740963e-04 -1.777617e-04
          -1.462430e-05 1.945440e-04 -7.505853e-05 -3.934791e-04 1.742717e-04 2.862206e-04
          2.644161e-04 2.928625e-04 9.600855e-05 1.986209e-04 7.607198e-05 5.203116e-05
          4.184499e-05 -1.876780e-05 9.227188e-05 1.561760e-04 2.584119e-04 3.462001e-04
          1.758281e-05 -2.372115e-04 -2.852730e-04 -2.353529e-04 -1.128779e-04 2.641289e-05
          1.321292e-04 4.341002e-04 5.985806e-04 -4.773121e-04 1.083114e-04 5.493932e-05
          -1.037917e-04 -5.671203e-05 -3.499106e-05 -9.850213e-05 -1.753878e-04 -3.939884e-04
          -2.519502e-04 -2.647755e-04 -2.742729e-04 -2.674783e-04 -2.538507e-04 -2.214771e-04
          -8.386746e-05 1.786330e-04 2.061683e-04 2.033949e-04 1.954512e-04 2.090093e-04
          2.743480e-04 3.057891e-04 3.148046e-04 3.138442e-04 2.616328e-04 2.398522e-04
          2.403388e-04 2.391075e-04 2.682430e-04 3.134085e-04 3.289256e-04 3.309814e-04
          3.291815e-04 2.838347e-04 2.676389e-04 2.624924e-04 2.566416e-04 2.540371e-04
          2.975848e-04 3.291509e-04 3.301539e-04 3.272771e-04 3.132413e-04 2.862036e-04
          2.674656e-04 2.601849e-04 2.525286e-04 2.819695e-04 1.563355e-04 1.517260e-04
          1.768195e-04 1.795720e-04 1.807655e-04 1.858769e-04 1.912615e-04 2.148365e-04
          -4.840170e-04 -5.252375e-04 -5.481231e-04 -5.288959e-04 -4.987161e-04 -4.318770e-04
          -1.923453e-04 3.433554e-04 4.000547e-04 4.005288e-04 3.786864e-04 3.896167e-04
          4.120249e-04 3.980043e-04 4.282977e-04 4.564151e-04 4.045868e-04 4.462113e-04
          4.576538e-04 4.523900e-04 4.850141e-04 4.108887e-04 4.357492e-04 4.409043e-04
          4.462336e-04 5.291638e-04 5.153881e-04 5.009308e-04 4.787587e-04 4.524019e-04
          4.664579e-04 4.661233e-04 4.663662e-04 4.576766e-04 4.257952e-04 3.726054e-04
          3.361051e-04 3.048931e-04 3.010072e-04 4.996079e-04 2.932822e-04 2.923105e-04
          3.445253e-04 3.434396e-04 3.420095e-04 3.551827e-04 3.701297e-04 4.286303e-04
          -5.299406e-04 -3.714764e-04 -3.243534e-04 -4.056947e-04 -4.720836e-04 -5.512389e-04
          -1.009847e-04 2.846878e-04 3.738306e-04 3.273268e-04 3.904891e-04 3.721928e-04
          3.874930e-04 4.624375e-04 2.455389e-04 -4.113046e-06 4.521625e-04 6.096921e-04
          6.049949e-04 6.261126e-04 4.855266e-04 4.672449e-04 3.754497e-04 3.588167e-04
          3.567138e-04 4.166882e-04 5.027572e-04 5.435055e-04 6.088987e-04 6.552212e-04
          3.683913e-04 1.330087e-04 9.039848e-05 1.262718e-04 2.054361e-04 2.792907e-04
          3.348579e-04 5.647353e-04 7.106998e-04 2.585284e-05 4.803865e-04 5.064901e-04
          4.292254e-04 4.691942e-04 4.842182e-04 4.400715e-04 3.858384e-04 2.317232e-04
          -4.449642e-04 -5.511942e-04 -5.932122e-04 -5.432372e-04 -4.868114e-04 -3.839904e-04
          -2.632077e-04 2.698632e-04 2.948275e-04 2.903454e-04 2.372927e-04 2.433792e-04
          1.821331e-04 8.282036e-05 1.925899e-04 3.277028e-04 2.322279e-04 3.589197e-04
          3.868442e-04 3.709763e-04 4.043255e-04 9.896216e-05 1.446665e-04 1.564261e-04
          1.754435e-04 4.963372e-04 4.863272e-04 4.542727e-04 3.991158e-04 3.289868e-04
          3.122175e-04 2.800958e-04 2.883867e-04 2.651179e-04 2.025441e-04 1.231151e-04
          6.997157e-05 -4.304785e-05 -6.828144e-05 4.968711e-04 1.446981e-04 1.119482e-04
          1.879263e-04 1.676725e-04 1.581547e-04 1.888427e-04 2.258475e-04 3.566111e-04
          -4.592268e-04 -3.059649e-04 -2.551516e-04 -3.348982e-04 -4.040988e-04 -4.928783e-04
          -1.419960e-04 1.120488e-04 1.524746e-04 6.956563e-05 1.239144e-04 1.003506e-04
          7.773714e-05 1.249490e-04 -7.776819e-05 -2.969622e-04 2.584818e-04 5.240116e-04
          5.292437e-04 5.468735e-04 3.541288e-04 1.331519e-04 3.038272e-05 1.410743e-05
          2.289373e-05 3.017684e-04 4.206924e-04 4.608967e-04 5.201713e-04 5.465043e-04
          1.465903e-04 -1.827664e-04 -2.285839e-04 -1.945746e-04 -1.131954e-04 -2.504103e-05
          4.458754e-05 2.672045e-04 4.307280e-04 -1.676762e-04 2.951320e-04 2.682575e-04
          1.682022e-04 1.996036e-04 2.119719e-04 1.687917e-04 1.168444e-04 -2.186604e-05
          -3.188371e-04 -3.746337e-04 -3.967991e-04 -3.711786e-04 -3.409034e-04 -2.829558e-04
          -1.870360e-04 1.599593e-04 1.719567e-04 1.560291e-04 1.252216e-04 1.279857e-04
          9.077741e-05 3.314288e-05 8.883134e-05 1.604372e-04 1.543792e-04 2.671881e-04
          2.862986e-04 2.771754e-04 2.774504e-04 4.508242e-05 6.523523e-05 7.150143e-05
          8.540517e-05 3.342782e-04 3.408302e-04 3.235998e-04 2.926830e-04 2.481805e-04
          1.938475e-04 1.373789e-04 1.386532e-04 1.263311e-04 9.301884e-05 5.068626e-05
          2.392147e-05 -3.074417e-05 -3.205464e-05 2.862168e-04 9.221160e-05 5.978212e-05
          9.731698e-05 8.603845e-05 8.084945e-05 9.708465e-05 1.168261e-04 1.917425e-04
          -1.250677e-04 -5.633625e-05 -3.450734e-05 -7.085392e-05 -1.037694e-04 -1.498273e-04
          -3.399173e-06 9.207691e-05 1.361524e-04 1.332744e-04 1.645778e-04 1.427430e-04
          7.089032e-05 5.530123e-05 -4.237506e-05 -1.453969e-04 7.438853e-05 1.636480e-04
          1.635460e-04 1.730899e-04 1.016363e-04 5.136892e-05 3.931342e-06 -3.874401e-06
          -2.770031e-06 6.519028e-05 1.095710e-04 1.276541e-04 1.555924e-04 1.723576e-04
          2.466640e-05 -9.627726e-05 -1.152358e-04 -9.917071e-05 -6.046024e-05 -1.958625e-05
          9.401027e-06 1.070618e-04 1.749774e-04 -9.214301e-05 1.901663e-04 2.271198e-04
          1.903226e-04 2.059517e-04 2.108211e-04 1.902141e-04 1.653303e-04 8.719459e-05
          1.838435e-04 2.428495e-04 2.654240e-04 2.334098e-04 1.967914e-04 1.309165e-04
          1.096020e-04 -5.160378e-05 -2.171350e-05 5.894936e-06 4.003104e-05 9.334718e-07
          -1.734172e-04 -2.531043e-04 -3.361655e-04 -4.100744e-04 -2.166793e-04 -1.401081e-04
          -1.406902e-04 -1.317964e-04 -2.021664e-04 -2.686113e-04 -3.189455e-04 -3.266440e-04
          -3.248838e-04 -2.499651e-04 -2.070507e-04 -1.900669e-04 -1.652647e-04 -1.505663e-04
          -2.849994e-04 -3.917888e-04 -4.057351e-04 -3.913666e-04 -3.498159e-04 -2.956283e-04
          -2.600582e-04 -1.860976e-04 -1.314578e-04 -3.287607e-04 5.119104e-05 1.215396e-04
          7.976744e-05 8.912070e-05 9.057216e-05 7.057245e-05 4.712450e-05 -4.083354e-05
          3.098653e-04 2.710843e-04 2.561494e-04 2.750138e-04 2.877703e-04 2.947410e-04
          1.732362e-04 5.617599e-05 1.028578e-04 2.010678e-04 2.029557e-04 1.820274e-04
          3.972487e-05 -6.068872e-05 -2.455224e-05 2.192559e-05 -1.777569e-04 -3.050851e-04
          -3.112088e-04 -3.120627e-04 -2.331050e-04 -8.035338e-05 -5.863234e-05 -5.568662e-05
          -6.358412e-05 -2.488349e-04 -2.968318e-04 -3.067841e-04 -3.191399e-04 -3.158017e-04
          -1.508550e-04 -1.347985e-05 1.435462e-06 -5.355422e-06 -2.047661e-05 -3.826573e-05
          -5.992228e-05 -1.214403e-04 -1.736121e-04 -1.307131e-05 4.662926e-05 1.639053e-04
          2.060615e-04 2.010580e-04 1.961819e-04 2.042219e-04 2.137579e-04 2.125618e-04
          2.764273e-04 2.810248e-04 2.750664e-04 2.746345e-04 2.736121e-04 2.648103e-04
          2.721031e-04 2.155866e-04 3.156578e-04 4.487499e-04 4.772774e-04 4.659655e-04
          4.197946e-04 4.039615e-04 3.836156e-04 3.418349e-04 6.395984e-05 -2.278587e-04
          -2.545487e-04 -2.459576e-04 -1.166062e-04 3.786343e-04 3.994469e-04 3.981697e-04
          3.710815e-04 -1.779627e-04 -2.610213e-04 -2.596440e-04 -2.460468e-04 -1.958494e-04
          1.038575e-04 3.581484e-04 3.726313e-04 3.760704e-04 3.776331e-04 3.645619e-04
          3.414966e-04 3.321760e-04 2.714269e-04 1.263779e-04 2.597095e-04 4.395461e-04
          4.855121e-04 4.990043e-04 5.014383e-04 4.982189e-04 4.927025e-04 4.342276e-04
          2.092742e-04 3.493136e-04 3.900237e-04 3.216220e-04 2.564296e-04 1.524810e-04
          3.239172e-04 1.991409e-04 3.242423e-04 4.238994e-04 5.095797e-04 4.814972e-04
          4.476509e-04 5.025476e-04 3.143262e-04 8.128904e-05 1.395580e-04 -8.150819e-05
          -1.197538e-04 -9.317940e-05 -7.655666e-05 4.729950e-04 4.168564e-04 4.009509e-04
          3.680091e-04 -2.134273e-04 -2.317015e-04 -1.930758e-04 -1.199668e-04 -1.923177e-05
          8.565740e-05 1.878667e-04 1.733559e-04 2.069771e-04 2.825034e-04 3.523352e-04
          3.894787e-04 5.582102e-04 5.978352e-04 -1.546139e-04 4.077659e-04 6.039318e-04
          5.647053e-04 6.068909e-04 6.210224e-04 5.792406e-04 5.270694e-04 3.264199e-04
          1.966467e-04 8.017666e-05 3.721407e-05 9.444143e-05 1.459741e-04 2.164267e-04
          6.672360e-05 1.169932e-04 1.525442e-04 2.513478e-04 2.161817e-04 2.058059e-04
          5.741328e-05 -8.656451e-05 4.221850e-05 1.967178e-04 -1.393273e-04 -2.467336e-04
          -2.400997e-04 -2.522532e-04 -1.294054e-04 -9.834066e-05 -3.647745e-05 -2.486969e-05
          -2.440763e-05 -8.897284e-05 -1.595800e-04 -1.916007e-04 -2.410340e-04 -2.768183e-04
          -5.804876e-05 1.154956e-04 1.425896e-04 1.183440e-04 5.901019e-05 -9.933550e-06
          -6.663765e-05 -2.227554e-04 -3.160711e-04 2.192849e-04 9.478394e-06 9.726962e-05
          1.877220e-04 1.661036e-04 1.545769e-04 1.851856e-04 2.221045e-04 3.123378e-04
          3.846109e-05 2.931529e-04 3.806908e-04 2.501954e-04 1.219259e-04 -7.757976e-05
          1.841834e-04 6.744418e-06 9.743806e-05 9.266236e-05 2.121319e-04 1.443490e-04
          -3.809323e-05 -3.239302e-05 -3.649493e-04 -7.228628e-04 -5.135195e-05 1.221367e-04
          1.049930e-04 1.407852e-04 -8.460844e-05 -5.590545e-05 -2.176236e-04 -2.464599e-04
          -2.540792e-04 -2.442579e-04 -1.116024e-04 -4.131120e-05 6.928234e-05 1.577480e-04
          -2.485601e-04 -5.685448e-04 -6.250232e-04 -5.666105e-04 -4.189608e-04 -2.494442e-04
          -1.315326e-04 2.024460e-04 4.037150e-04 -6.680812e-04 3.550486e-04 4.748094e-04
          3.189636e-04 3.719323e-04 3.903818e-04 3.143222e-04 2.228947e-04 -7.569349e-05
          1.834286e-04 1.896774e-04 1.917097e-04 1.834642e-04 1.686994e-04 1.345730e-04
          9.535276e-05 7.361366e-05 1.431007e-04 2.216762e-04 2.407450e-04 1.809088e-04
          -1.559565e-04 -3.638689e-04 -4.005407e-04 -4.054805e-04 -2.821235e-04 -1.673899e-04
          -1.560764e-04 -1.528653e-04 -1.972827e-04 -3.858149e-04 -4.207145e-04 -4.235734e-04
          -4.144048e-04 -2.209389e-04 -1.885284e-04 -1.867322e-04 -1.880249e-04 -2.039173e-04
          -3.232435e-04 -4.247669e-04 -4.322917e-04 -4.282708e-04 -4.113414e-04 -3.857764e-04
          -3.739464e-04 -3.626423e-04 -3.260495e-04 -2.188543e-04 1.420579e-04 2.710283e-04
          2.712929e-04 2.701674e-04 2.648229e-04 2.574365e-04 2.495916e-04 1.987132e-04
          1.070254e-04 1.323047e-04 1.352778e-04 1.182267e-04 9.964033e-05 6.531372e-05
          1.476790e-04 2.598760e-04 3.865452e-04 5.035913e-04 5.383656e-04 4.804616e-04
          1.740473e-04 -4.240446e-06 -7.387106e-05 -1.304872e-04 -7.630136e-05 -6.663158e-05
          -6.675284e-05 -5.794200e-05 -5.887625e-05 -3.093928e-05 -6.278579e-05 -6.764595e-05
          -7.042941e-05 -1.085209e-04 -1.039536e-04 -9.787846e-05 -8.671841e-05 -7.671877e-05
          -9.793114e-05 -1.169570e-04 -1.241480e-04 -1.149912e-04 -9.252972e-05 -7.336232e-05
          -7.023817e-05 -3.328222e-05 -4.413833e-06 -4.616105e-05 3.603688e-04 5.522070e-04
          5.685979e-04 5.794335e-04 5.778889e-04 5.654304e-04 5.502531e-04 4.670976e-04
          -1.191512e-04 -1.082175e-04 -1.189137e-04 -1.245193e-04 -1.213296e-04 -1.071322e-04
          1.412081e-04 5.039121e-04 6.671082e-04 8.009219e-04 8.305840e-04 8.159188e-04
          7.500619e-04 7.176194e-04 6.684700e-04 5.930376e-04 3.853391e-04 1.618901e-04
          1.425232e-04 1.524191e-04 2.706732e-04 6.989321e-04 7.134450e-04 7.117574e-04
          6.883589e-04 2.204379e-04 1.486783e-04 1.492190e-04 1.619780e-04 2.033813e-04
          4.437770e-04 6.415123e-04 6.468123e-04 6.524608e-04 6.515373e-04 6.219470e-04
          5.878883e-04 6.063536e-04 5.761408e-04 4.295947e-04 5.635570e-04 7.638806e-04
          8.281696e-04 8.491415e-04 8.530536e-04 8.485027e-04 8.406298e-04 7.822552e-04
          -2.030890e-04 -2.152914e-04 -2.312312e-04 -2.240293e-04 -2.072506e-04 -1.691198e-04
          4.289341e-05 3.986106e-04 5.043112e-04 5.830639e-04 5.909546e-04 5.997993e-04
          6.465287e-04 6.713656e-04 6.654696e-04 6.336111e-04 4.107597e-04 2.169057e-04
          2.024321e-04 2.063655e-04 3.195853e-04 6.661957e-04 6.969602e-04 6.985723e-04
          6.804327e-04 3.029231e-04 2.340189e-04 2.283417e-04 2.292720e-04 2.552045e-04
          4.822218e-04 6.672915e-04 6.759015e-04 6.748427e-04 6.581308e-04 6.141624e-04
          5.752562e-04 5.647909e-04 5.231155e-04 4.720943e-04 4.008145e-04 5.093485e-04