<?xml version="1.0"?>
<VTKFile type="RectilinearGrid" version="0.1" byte_order="LittleEndian">
  <RectilinearGrid WholeExtent="0 47 0 47 0 47">
    <Piece Extent="0 47 0 47 0 47">
      <PointData Scalars="concentration">
        <DataArray type="Float32" Name="concentration" NumberOfComponents="1" format="ascii">
          -2.833095e-04 -2.464170e-04 -2.340367e-04 -2.605221e-04 -2.860782e-04 -3.205505e-04
          -1.624105e-04 1.330097e-04 1.894202e-04 1.769882e-04 1.910209e-04 1.289728e-04
          -2.092720e-04 -4.164067e-04 -4.977107e-04 -5.390887e-04 -1.005638e-04 2.803752e-04
          3.129370e-04 3.154113e-04 1.496298e-04 -4.190053e-04 -4.908117e-04 -4.962974e-04
          -4.670507e-04 1.572495e-04 2.694624e-04 2.779981e-04 2.791975e-04 2.329384e-04
          -1.780363e-04 -5.287952e-04 -5.591096e-04 -5.492702e-04 -5.181893e-04 -4.763608e-04
          -4.433425e-04 -3.678442e-04 -2.452770e-04 -1.636470e-04 2.218816e-04 2.561723e-04
          2.204456e-04 2.214416e-04 2.178353e-04 2.028016e-04 1.868755e-04 1.418034e-04
          -2.529774e-04 -2.161305e-04 -2.116633e-04 -2.370626e-04 -2.579900e-04 -2.834070e-04
          -3.197185e-05 3.863435e-04 5.293017e-04 6.044136e-04 6.349920e-04 5.696969e-04
          2.214770e-04 1.293223e-05 -8.382288e-05 -1.593996e-04 8.758499e-05 2.772879e-04
          2.933927e-04 3.014301e-04 2.301115e-04 -2.730786e-06 -5.632885e-05 -6.206142e-05
          -5.093390e-05 2.039986e-04 2.571502e-04 2.646468e-04 2.729777e-04 2.580198e-04
          5.223901e-05 -1.272502e-04 -1.491557e-04 -1.375858e-04 -1.106760e-04 -8.958869e-05
          -8.018517e-05 -8.467286e-06 7.601561e-05 6.912106e-05 4.995802e-04 6.551287e-04
          6.616472e-04 6.738282e-04 6.726076e-04 6.570249e-04 6.387234e-04 5.626991e-04
          -1.280376e-04 9.896894e-05 1.665653e-04 4.887087e-05 -5.996578e-05 -2.209819e-04
          2.135692e-04 3.950505e-04 5.965644e-04 6.818653e-04 8.044387e-04 7.274367e-04
          4.750536e-04 4.236024e-04 9.640143e-05 -2.639819e-04 2.317591e-04 2.904434e-04
          2.685532e-04 3.058577e-04 1.708284e-04 3.914028e-04 2.541101e-04 2.278981e-04
          2.105087e-04 4.878457e-06 8.593743e-05 1.463199e-04 2.477043e-04 3.418443e-04
          9.582267e-05 -9.736710e-05 -1.465793e-04 -9.214171e-05 3.562327e-05 1.624686e-04
          2.421810e-04 5.485566e-04 7.183301e-04 -2.658684e-04 7.425552e-04 9.865179e-04
          8.959141e-04 9.551426e-04 9.730532e-04 9.038366e-04 8.191745e-04 5.221865e-04
          1.301526e-04 -3.266240e-05 -9.792086e-05 -1.905899e-05 5.625853e-05 1.661642e-04
          8.418915e-05 3.765140e-04 4.872794e-04 6.614953e-04 6.185314e-04 5.955329e-04
          3.413351e-04 1.089330e-04 2.718333e-04 4.667118e-04 -2.625459e-05 -1.948377e-04
          -1.860997e-04 -2.008171e-04 -6.653301e-06 8.933108e-05 1.769001e-04 1.929027e-04
          1.907328e-04 4.355254e-05 -6.626709e-05 -1.126129e-04 -1.814555e-04 -2.287201e-04
          1.064056e-04 3.698350e-04 4.062244e-04 3.734514e-04 2.882171e-04 1.787478e-04
          8.714016e-05 -1.232628e-04 -2.506653e-04 4.959743e-04 2.435588e-04 4.254747e-04
          5.751876e-04 5.506804e-04 5.352950e-04 5.775959e-04 6.276278e-04 7.424089e-04
          1.806308e-04 3.421492e-04 3.950319e-04 3.115480e-04 2.272791e-04 9.036632e-05
          2.465158e-04 1.105965e-04 2.258799e-04 2.968196e-04 3.875059e-04 3.239987e-04
          9.828838e-05 3.711334e-05 -1.876310e-04 -4.275247e-04 -8.412476e-05 -5.776013e-05
          -7.577596e-05 -4.918366e-05 -1.510020e-04 6.620329e-06 -9.542623e-05 -1.146620e-04
          -1.273133e-04 -2.807987e-04 -2.214571e-04 -1.769878e-04 -1.034070e-04 -3.348090e-05
          -2.024884e-04 -3.306429e-04 -3.621640e-04 -3.234682e-04 -2.263882e-04 -1.192591e-04
          -5.181511e-05 1.550872e-04 2.666633e-04 -4.249525e-04 3.631977e-04 5.439818e-04
          4.654877e-04 5.030932e-04 5.141643e-04 4.638064e-04 4.024824e-04 1.800474e-04
          2.206768e-04 3.853084e-04 4.464932e-04 3.615274e-04 2.719919e-04 1.234860e-04
          1.730633e-04 -1.372803e-04 -1.023140e-04 -1.026493e-04 -2.367483e-05 -7.936679e-05
          -2.629074e-04 -2.982243e-04 -5.088717e-04 -7.239706e-04 -2.563962e-04 -1.147032e-04
          -1.239182e-04 -1.011789e-04 -2.685668e-04 -3.188667e-04 -4.323576e-04 -4.516238e-04
          -4.530919e-04 -3.771080e-04 -2.782947e-04 -2.317030e-04 -1.607542e-04 -1.081406e-04
          -4.084994e-04 -6.442492e-04 -6.803319e-04 -6.425641e-04 -5.407885e-04 -4.146595e-04
          -3.268843e-04 -1.173930e-04 1.562279e-05 -6.443972e-04 9.455196e-05 1.731383e-04
          5.744950e-05 8.665917e-05 9.661695e-05 4.618742e-05 -1.398666e-05 -2.148794e-04
          1.559841e-04 -5.681378e-05 -1.245967e-04 -2.097446e-05 7.103243e-05 2.009126e-04
          -1.376620e-04 -1.122229e-04 -1.798625e-04 -1.532143e-04 -2.472666e-04 -2.467498e-04
          -4.192256e-04 -6.301089e-04 -3.695901e-04 -4.316035e-05 -3.785028e-04 -2.950424e-04
          -2.591092e-04 -2.901001e-04 -2.006127e-04 -6.239805e-04 -5.312346e-04 -5.090910e-04
          -4.820323e-04 -6.648346e-05 -1.106876e-04 -1.684996e-04 -2.695179e-04 -3.807733e-04
          -2.783970e-04 -2.109192e-04 -1.747598e-04 -2.221639e-04 -3.291756e-04 -4.348253e-04
          -5.085632e-04 -7.833504e-04 -8.971714e-04 1.869286e-04 -3.594541e-04 -4.119916e-04
          -3.059977e-04 -3.603849e-04 -3.830801e-04 -3.246559e-04 -2.523864e-04 -2.714111e-05
          -1.800604e-04 1.503101e-04 2.655748e-04 9.692340e-05 -6.457990e-05 -3.064566e-04
          9.068560e-05 -3.944874e-05 3.175167e-05 -4.777666e-05 9.222925e-05 2.777953e-05
          -7.944631e-05 3.799041e-06 -4.164344e-04 -8.744719e-04 6.809366e-05 3.665948e-04
          3.504227e-04 3.934952e-04 6.830980e-05 -9.274305e-06 -2.166771e-04 -2.530987e-04
          -2.563820e-04 -1.095364e-04 8.321601e-05 1.740299e-04 3.141214e-04 4.166850e-04
          -1.858681e-04 -6.657196e-04 -7.435351e-04 -6.693313e-04 -4.829939e-04 -2.688527e-04
          -1.128636e-04 3.281354e-04 6.047463e-04 -7.856573e-04 3.795895e-04 4.328267e-04
          2.164760e-04 2.827680e-04 3.083162e-04 2.121675e-04 9.689802e-05 -2.557567e-04
          -2.079690e-04 -2.309043e-04 -2.415967e-04 -2.335458e-04 -2.231577e-04 -2.011323e-04
          -1.082735e-04 1.592537e-04 1.979357e-04 2.082424e-04 1.985765e-04 1.789214e-04
          4.280668e-05 -5.978164e-05 -5.207292e-05 -2.537758e-05 5.244978e-05 1.839432e-04
          2.006181e-04 1.972143e-04 1.698928e-04 -5.828496e-05 -6.388988e-05 -6.190828e-05
          -4.928234e-05 1.955769e-04 2.190589e-04 2.114205e-04 1.947973e-04 1.623438e-04
          5.864973e-05 -3.599767e-05 -4.138868e-05 -4.554476e-05 -5.611089e-05 -7.055375e-05
          -8.036536e-05 -9.459766e-05 -7.032999e-05 1.277530e-04 1.516356e-04 1.734110e-04
          1.926706e-04 1.878100e-04 1.837811e-04 1.886738e-04 1.952545e-04 2.171948e-04
          -1.856182e-04 -1.502922e-04 -1.434024e-04 -1.623090e-04 -1.755616e-04 -1.877440e-04
          -1.258844e-05 2.045500e-04 2.684278e-04 2.890703e-04 3.087630e-04 2.964482e-04
          2.543896e-04 2.420103e-04 1.813719e-04 1.117080e-04 1.922543e-04 2.090388e-04
          2.071616e-04 2.136697e-04 1.996293e-04 2.390354e-04 2.188515e-04 2.149117e-04
          2.119996e-04 1.770645e-04 1.874005e-04 1.958267e-04 2.105447e-04 2.237607e-04
          1.852361e-04 1.518146e-04 1.417459e-04 1.506559e-04 1.674142e-04 1.763304e-04
          1.805121e-04 2.359897e-04 2.692330e-04 1.166927e-04 2.629066e-04 3.177818e-04
          3.168189e-04 3.296635e-04 3.332319e-04 3.226171e-04 3.093755e-04 2.639131e-04
          -1.084677e-04 -6.949934e-05 -6.208132e-05 -7.977274e-05 -9.083378e-05 -9.982840e-05
          5.715547e-05 1.856869e-04 2.403027e-04 2.669479e-04 2.897070e-04 2.991827e-04
          3.899655e-04 4.672416e-04 4.135881e-04 3.305872e-04 2.757226e-04 1.447535e-04
          1.280396e-04 1.363508e-04 1.778216e-04 4.643364e-04 4.630292e-04 4.593023e-04
          4.432116e-04 1.409857e-04 1.128085e-04 1.227170e-04 1.451355e-04 1.844739e-04
          2.907556e-04 3.820957e-04 3.800734e-04 3.893064e-04 4.031254e-04 4.040483e-04
          4.008859e-04 4.517052e-04 4.496513e-04 1.796479e-04 2.331879e-04 2.856195e-04
          2.914239e-04 3.088547e-04 3.156310e-04 3.057540e-04 2.923756e-04 2.440165e-04
          -6.070942e-05 -5.869794e-05 -5.878091e-05 -5.740876e-05 -5.289561e-05 -4.109809e-05
          -9.505344e-06 4.777749e-06 -1.025055e-05 -2.864574e-05 -3.156286e-05 -7.119120e-06
          1.362033e-04 2.282229e-04 2.356742e-04 2.252298e-04 1.468770e-04 6.223031e-05
          5.364378e-05 5.386107e-05 8.668869e-05 2.346218e-04 2.503333e-04 2.509716e-04
          2.432360e-04 8.710250e-05 6.424866e-05 6.495330e-05 6.898582e-05 8.389440e-05
          1.680917e-04 2.398327e-04 2.439206e-04 2.435857e-04 2.383939e-04 2.274072e-04
          2.205168e-04 2.207141e-04 2.006302e-04 1.153763e-04 -1.437924e-05 -4.692229e-05
          -4.299977e-05 -3.954450e-05 -3.650382e-05 -3.483276e-05 -3.355778e-05 -2.308553e-05
          -8.384030e-05 -1.023226e-04 -1.046266e-04 -9.455811e-05 -8.435184e-05 -6.578552e-05
          -1.095977e-04 -1.355527e-04 -2.011221e-04 -2.657307e-04 -2.870775e-04 -2.654452e-04
          -1.614075e-04 -1.075503e-04 -6.927543e-05 -2.839019e-05 -4.330782e-06 5.492556e-05
          6.196131e-05 5.581534e-05 3.371634e-05 -9.344921e-05 -8.309084e-05 -8.029185e-05
          -7.282491e-05 6.819596e-05 8.151703e-05 7.703805e-05 6.625870e-05 4.808317e-05
          -1.091979e-06 -4.329472e-05 -4.220591e-05 -4.795932e-05 -6.024413e-05 -6.834516e-05
          -6.784510e-05 -8.987528e-05 -9.202486e-05 -3.172734e-06 -1.884469e-04 -2.909439e-04
          -3.012819e-04 -3.098109e-04 -3.108749e-04 -3.036108e-04 -2.943108e-04 -2.454407e-04
          -1.536315e-04 -1.055353e-04 -8.480218e-05 -1.079238e-04 -1.281806e-04 -1.531704e-04
          -1.073025e-04 -1.524389e-04 -2.140333e-04 -3.074008e-04 -3.032474e-04 -2.849365e-04
          -1.479011e-04 -4.311035e-05 -8.498231e-05 -1.372973e-04 5.899966e-05 1.603399e-04
          1.622779e-04 1.643924e-04 8.332751e-05 -2.807184e-05 -5.439178e-05 -5.856386e-05
          -5.331744e-05 8.542274e-05 1.325665e-04 1.463182e-04 1.645024e-04 1.698984e-04
          1.741014e-05 -1.060437e-04 -1.196667e-04 -1.108887e-04 -8.792843e-05 -5.667504e-05
          -2.637680e-05 4.004528e-05 8.853111e-05 -1.246078e-04 -1.306681e-04 -2.428144e-04
          -2.971444e-04 -2.917733e-04 -2.867519e-04 -2.979824e-04 -3.109301e-04 -3.258859e-04
          -1.899628e-04 -2.643412e-04 -2.879487e-04 -2.482712e-04 -2.056043e-04 -1.314587e-04
          -1.792127e-04 -8.712898e-05 -1.706773e-04 -2.437530e-04 -2.938265e-04 -2.447878e-04
          -3.011609e-05 6.600712e-05 1.792467e-04 2.912100e-04 1.348186e-04 1.240299e-04
          1.320119e-04 1.180150e-04 1.616445e-04 8.994288e-05 1.439803e-04 1.536458e-04
          1.596485e-04 2.350443e-04 2.085151e-04 1.881177e-04 1.540292e-04 1.215219e-04
          1.968367e-04 2.537440e-04 2.681349e-04 2.492427e-04 2.001838e-04 1.450628e-04
          1.134532e-04 1.988058e-05 -3.305140e-05 2.578387e-04 -2.266517e-04 -3.699968e-04
          -3.399209e-04 -3.575190e-04 -3.610006e-04 -3.359170e-04 -3.053144e-04 -1.827095e-04
          -2.562478e-04 -1.609121e-04 -1.273085e-04 -1.716051e-04 -2.070588e-04 -2.479908e-04
          -8.197530e-05 -8.278572e-05 -1.293544e-04 -2.344490e-04 -2.110476e-04 -1.745099e-04
          1.069510e-04 3.258024e-04 2.311539e-04 9.643748e-05 2.903237e-04 2.956406e-04
          2.822847e-04 2.918334e-04 2.250301e-04 3.437848e-04 3.111055e-04 3.026770e-04
          2.948296e-04 1.967645e-04 2.308909e-04 2.571599e-04 3.005320e-04 3.432927e-04
          2.489511e-04 1.785760e-04 1.604998e-04 1.793950e-04 2.205140e-04 2.626629e-04
          3.004764e-04 4.267074e-04 4.823976e-04 -3.432162e-05 -1.995236e-05 -1.334020e-04
          -2.021533e-04 -1.810635e-04 -1.685209e-04 -1.911473e-04 -2.187071e-04 -2.761248e-04
          -1.861054e-04 -2.459387e-04 -2.663289e-04 -2.333400e-04 -1.960261e-04 -1.290622e-04
          -1.380759e-04 -3.162340e-05 -9.391610e-05 -1.505182e-04 -1.905939e-04 -1.412641e-04
          8.953320e-05 2.040796e-04 2.970084e-04 3.794448e-04 1.994094e-04 1.358791e-04
          1.371802e-04 1.265977e-04 1.862411e-04 2.248144e-04 2.772505e-04 2.853686e-04
          2.851395e-04 2.426965e-04 2.051654e-04 1.886184e-04 1.632275e-04 1.460647e-04
          2.640593e-04 3.580608e-04 3.722084e-04 3.569024e-04 3.141666e-04 2.618647e-04
          2.301988e-04 1.540403e-04 9.905667e-05 2.922398e-04 -1.499629e-04 -2.650586e-04
          -2.334171e-04 -2.449167e-04 -2.462039e-04 -2.251154e-04 -1.999780e-04 -9.929277e-05
          -2.055882e-05 -6.483088e-05 -7.679264e-05 -4.952771e-05 -2.080801e-05 2.758026e-05
          -6.180292e-05 -1.626018e-04 -2.549152e-04 -3.194449e-04 -3.527477e-04 -2.935261e-04
          1.110890e-05 1.836023e-04 2.711530e-04 3.386558e-04 1.225645e-04 -1.407905e-05
          -2.286556e-05 -3.119457e-05 3.892443e-05 2.025382e-04 2.558620e-04 2.624674e-04
          2.552053e-04 7.789051e-05 2.994554e-05 1.895124e-05 4.030881e-06 6.450217e-06
          1.770802e-04 3.206700e-04 3.378712e-04 3.254358e-04 2.912618e-04 2.523432e-04
          2.298627e-04 1.632763e-04 9.525927e-05 1.658224e-04 -2.738800e-04 -4.044040e-04
          -3.891437e-04 -3.985231e-04 -3.975592e-04 -3.800964e-04 -3.597265e-04 -2.751279e-04
          -2.180537e-05 2.429808e-04 3.400090e-04 2.131652e-04 9.330159e-05 -8.463945e-05
          1.164306e-04 -2.995280e-04 -3.556149e-04 -4.939645e-04 -3.955804e-04 -3.713360e-04
          -1.634583e-05 3.347703e-04 4.751774e-05 -3.146289e-04 1.948443e-04 1.734699e-04
          1.332018e-04 1.660519e-04 -9.452150e-06 3.412788e-04 2.228100e-04 1.959652e-04
          1.718689e-04 -1.507210e-04 -6.009484e-05 1.486049e-05 1.380712e-04 2.636638e-04
          3.090953e-05 -1.350033e-04 -1.798780e-04 -1.237142e-04 1.251746e-05 1.684541e-04
          2.867532e-04 6.184370e-04 7.647248e-04 -5.754292e-04 -3.908525e-05 -1.362243e-04
          -3.212248e-04 -2.665045e-04 -2.388759e-04 -3.094030e-04 -3.954837e-04 -6.387287e-04
          2.027392e-05 -1.044768e-04 -1.416936e-04 -7.452875e-05 -9.629344e-06 9.119363e-05
          -1.272395e-04 -2.281626e-04 -3.591219e-04 -4.270017e-04 -4.985323e-04 -4.307472e-04
          -1.437114e-04 -2.110850e-05 1.698730e-04 3.616985e-04 7.435125e-06 -1.096883e-04
          -1.062348e-04 -1.268249e-04 -1.965339e-05 3.362109e-06 9.572043e-05 1.109873e-04
          1.130390e-04 7.340041e-05 5.937240e-06 -2.685287e-05 -7.950691e-05 -1.171303e-04
          1.033911e-04 2.823400e-04 3.140437e-04 2.832598e-04 2.069467e-04 1.260223e-04
          7.529429e-05 -9.592922e-05 -2.110724e-04 2.523783e-04 -4.422052e-04 -6.139644e-04
          -5.607643e-04 -5.907532e-04 -5.976950e-04 -5.573236e-04 -5.087946e-04 -3.321522e-04
          -1.485288e-04 -1.727644e-04 -1.720464e-04 -1.569643e-04 -1.415173e-04 -1.119147e-04
          -2.109264e-04 -3.296911e-04 -4.799325e-04 -6.272922e-04 -6.672073e-04 -6.145355e-04
          -3.409994e-04 -1.855764e-04 -1.161850e-04 -4.898024e-05 2.265312e-06 9.704846e-05
          1.065292e-04 9.560242e-05 4.914451e-05 -1.546958e-04 -1.350468e-04 -1.305527e-04
          -1.183764e-04 1.123850e-04 1.385341e-04 1.333093e-04 1.184644e-04 9.214742e-05
          3.306619e-06 -7.045925e-05 -6.877354e-05 -7.797225e-05 -9.726693e-05 -1.065780e-04
          -9.950144e-05 -1.303460e-04 -1.350522e-04 -4.289168e-05 -4.322245e-04 -6.617127e-04
          -6.944419e-04 -7.093355e-04 -7.094880e-04 -6.975968e-04 -6.824523e-04 -5.907763e-04
          -2.683637e-04 -2.315431e-04 -2.077056e-04 -2.244460e-04 -2.390590e-04 -2.522786e-04
          -2.742511e-04 -3.922781e-04 -5.557609e-04 -7.555132e-04 -7.770870e-04 -7.340884e-04
          -4.723543e-04 -2.998545e-04 -3.046116e-04 -3.121632e-04 -2.930168e-07 2.380697e-04
          2.526368e-04 2.472815e-04 1.015062e-04 -2.642433e-04 -2.902042e-04 -2.922487e-04
          -2.726122e-04 1.490479e-04 2.360536e-04 2.474994e-04 2.550054e-04 2.330952e-04
          -5.861873e-05 -2.987445e-04 -3.161808e-04 -3.123015e-04 -2.968664e-04 -2.622221e-04
          -2.192229e-04 -1.637053e-04 -9.774046e-05 -2.233975e-04 -4.275631e-04 -6.969189e-04
          -7.832169e-04 -7.893351e-04 -7.855179e-04 -7.909333e-04 -7.959743e-04 -7.542309e-04
          -1.893598e-04 -4.780164e-04 -5.698027e-04 -4.240460e-04 -2.829490e-04 -6.165772e-05
          -4.041800e-04 -2.238655e-04 -4.088934e-04 -5.045410e-04 -6.593994e-04 -5.839434e-04
          -3.971265e-04 -4.242015e-04 -3.687229e-05 4.035775e-04 -9.629907e-05 -2.825990e-05
          1.503761e-05 -3.223061e-05 1.020395e-04 -3.811332e-04 -2.234266e-04 -1.905073e-04
          -1.575136e-04 3.275865e-04 2.550052e-04 1.760376e-04 4.007322e-05 -1.034130e-04
          7.986873e-05 2.085546e-04 2.592888e-04 1.914221e-04 2.817300e-05 -1.429996e-04
          -2.513817e-04 -6.188272e-04 -7.895580e-04 5.537157e-04 -6.417409e-04 -9.109755e-04
          -7.790520e-04 -8.510285e-04 -8.752549e-04 -7.885447e-04 -6.824809e-04 -3.069867e-04
          -2.259639e-04 3.735150e-06 8.275748e-05 -3.090775e-05 -1.347583e-04 -2.827234e-04
          3.256894e-05 -3.911050e-05 -2.037938e-05 -1.115054e-04 -2.162263e-05 -2.800065e-05
          1.185650e-04 3.162302e-04 4.102954e-05 -2.857588e-04 2.590344e-04 3.533904e-04
          3.310250e-04 3.602208e-04 1.786457e-04 3.186178e-04 1.987268e-04 1.747120e-04
          1.625805e-04 6.114586e-05 1.638325e-04 2.268650e-04 3.285083e-04 4.185926e-04
          1.140687e-04 -1.221148e-04 -1.701526e-04 -1.199294e-04 3.956523e-08 1.314672e-04
          2.299282e-04 5.331451e-04 6.958878e-04 -3.783017e-04 2.165945e-04 1.918709e-04
          4.594991e-05 9.576635e-05 1.175785e-04 5.438888e-05 -2.256185e-05 -2.447357e-04
          -2.752425e-04 -2.919094e-04 -3.052465e-04 -2.991978e-04 -2.865467e-04 -2.562199e-04
          -7.497785e-05 3.027482e-04 3.801994e-04 4.178799e-04 4.158668e-04 4.036097e-04
          3.177666e-04 2.510374e-04 2.460981e-04 2.439341e-04 2.331360e-04 2.648668e-04
          2.722125e-04 2.718135e-04 2.907424e-04 2.505871e-04 2.551928e-04 2.567581e-04
          2.593578e-04 3.020471e-04 2.959444e-04 2.890796e-04 2.790314e-04 2.657713e-04
          2.644500e-04 2.552147e-04 2.526871e-04 2.504295e-04 2.381582e-04 2.113786e-04
          1.897956e-04 1.837534e-04 1.918983e-04 3.000312e-04 3.050821e-04 3.666549e-04
          4.043259e-04 4.074119e-04 4.060444e-04 4.100269e-04 4.141408e-04 4.231242e-04
          -6.274341e-04 -6.764214e-04 -7.050322e-04 -6.891066e-04 -6.629578e-04 -6.023030e-04
          -2.655619e-04 5.535732e-04 6.936758e-04 7.431182e-04 7.266104e-04 6.771510e-04
          3.415307e-04 9.146482e-05 9.125030e-05 1.286341e-04 2.927414e-04 5.781474e-04
          6.158404e-04 6.100820e-04 5.648370e-04 9.351626e-05 8.109643e-05 8.525956e-05
          1.115124e-04 6.188751e-04 6.633673e-04 6.452280e-04 6.092823e-04 5.387584e-04
          3.238835e-04 1.228577e-04 1.085156e-04 1.006390e-04 7.513454e-05 3.104875e-05
          -1.329444e-06 -2.228945e-05 3.791848e-05 4.703251e-04 5.521725e-04 6.467536e-04
          7.090941e-04 7.041313e-04 6.959006e-04 7.062003e-04 7.189889e-04 7.590464e-04
          -7.222852e-04 -5.723903e-04 -5.317580e-04 -6.170883e-04 -6.878380e-04 -7.725867e-04
          -1.998655e-04 5.305159e-04 7.140090e-04 7.185284e-04 7.868620e-04 7.003658e-04
          3.106035e-04 1.178549e-04 -1.344906e-04 -3.740658e-04 3.400160e-04 7.871433e-04
          8.134659e-04 8.338204e-04 5.999946e-04 1.115703e-04 -2.353165e-05 -4.124188e-05
          -1.853957e-05 5.449613e-04 7.004807e-04 7.370128e-04 7.863041e-04 7.804248e-04
          2.210020e-04 -2.533474e-04 -3.134379e-04 -2.766656e-04 -1.903949e-04 -1.066069e-04
          -4.616750e-05 1.971420e-04 4.194277e-04 4.021414e-06 7.807118e-04 9.100598e-04
          8.436564e-04 8.791260e-04 8.865294e-04 8.391376e-04 7.825006e-04 6.093744e-04
          -6.317477e-04 -7.458548e-04 -7.939917e-04 -7.480353e-04 -6.960054e-04 -5.987974e-04
          -3.593368e-04 5.062350e-04 6.219092e-04 6.660707e-04 6.180761e-04 5.584104e-04
          1.069414e-04 -2.501111e-04 -1.749540e-04 -3.054354e-05 1.243803e-04 5.314212e-04
          5.892860e-04 5.727147e-04 5.154270e-04 -2.446207e-04 -2.409366e-04 -2.302420e-04
          -1.872350e-04 6.207325e-04 6.781614e-04 6.421851e-04 5.715578e-04 4.510810e-04
          1.700120e-04 -9.374129e-05 -1.024180e-04 -1.247598e-04 -1.802835e-04 -2.498702e-04
          -2.981019e-04 -3.976027e-04 -3.488120e-04 4.748406e-04 4.339016e-04 5.001255e-04
          5.862066e-04 5.616410e-04 5.447970e-04 5.722651e-04 6.068438e-04 7.191007e-04
          -6.187619e-04 -4.718663e-04 -4.258956e-04 -5.091066e-04 -5.820853e-04 -6.756491e-04
          -2.274745e-04 3.014174e-04 4.145043e-04 3.687083e-04 4.267018e-04 3.487548e-04
          3.223207e-06 -1.630688e-04 -3.942529e-04 -6.049633e-04 1.655367e-04 6.707322e-04
          7.013922e-04 7.182598e-04 4.469416e-04 -1.631471e-04 -3.014498e-04 -3.186278e-04
          -2.892879e-04 4.068216e-04 5.838599e-04 6.209274e-04 6.670771e-04 6.505807e-04
          2.379782e-05 -5.040976e-04 -5.643833e-04 -5.296153e-04 -4.422066e-04 -3.452717e-04
          -2.708082e-04 -3.649318e-05 1.900663e-04 -1.915414e-04 5.276357e-04 5.785949e-04
          4.854961e-04 5.130441e-04 5.192442e-04 4.733435e-04 4.194734e-04 2.664824e-04
          -4.129854e-04 -4.732901e-04 -4.990050e-04 -4.759943e-04 -4.490305e-04 -3.963459e-04
          -2.362081e-04 2.989978e-04 3.671378e-04 3.840940e-04 3.572309e-04 3.183421e-04
          3.506434e-05 -1.843694e-04 -1.503390e-04 -7.293208e-05 7.230994e-05 3.538410e-04
          3.909691e-04 3.815652e-04 3.269405e-04 -1.799670e-04 -1.860059e-04 -1.805055e-04
          -1.521419e-04 3.901209e-04 4.375697e-04 4.181625e-04 3.779589e-04 3.032960e-04
          8.944827e-05 -1.066271e-04 -1.155091e-04 -1.271398e-04 -1.554852e-04 -1.906183e-04
          -2.138992e-04 -2.606488e-04 -2.172855e-04 2.585618e-04 2.654494e-04 2.978300e-04
          3.412438e-04 3.272719e-04 3.174502e-04 3.314885e-04 3.495040e-04 4.109958e-04
          -1.736556e-04 -1.075975e-04 -8.840075e-05 -1.265191e-04 -1.618062e-04 -2.119417e-04
          -2.154273e-05 1.974695e-04 2.846680e-04 3.111266e-04 3.466835e-04 2.963239e-04
          5.712844e-05 -6.762524e-05 -1.810754e-04 -2.827003e-04 2.353129e-05 2.099295e-04
          2.204516e-04 2.303085e-04 1.290149e-04 -7.801423e-05 -1.419154e-04 -1.502828e-04
          -1.409699e-04 9.347111e-05 1.607880e-04 1.774694e-04 1.999890e-04 1.992907e-04
          -3.898321e-05 -2.396728e-04 -2.646450e-04 -2.479330e-04 -2.057857e-04 -1.607698e-04
          -1.307267e-04 -2.814462e-05 6.644843e-05 -1.033984e-04 3.209507e-04 4.111990e-04
          3.808616e-04 3.953606e-04 3.973580e-04 3.751682e-04 3.487206e-04 2.582782e-04
          2.168715e-04 2.764034e-04 2.985305e-04 2.662608e-04 2.288381e-04 1.606346e-04
          1.381391e-04 -2.894980e-05 1.293929e-05 5.610573e-05 9.358823e-05 5.072459e-05
          -1.434964e-04 -2.343659e-04 -3.207096e-04 -3.983163e-04 -2.241595e-04 -1.681759e-04
          -1.705614e-04 -1.607408e-04 -2.216966e-04 -2.531700e-04 -3.032114e-04 -3.110630e-04
          -3.112480e-04 -2.758699e-04 -2.387987e-04 -2.217531e-04 -1.958512e-04 -1.776334e-04
          -2.907506e-04 -3.795671e-04 -3.924790e-04 -3.777274e-04 -3.353353e-04 -2.812580e-04
          -2.472973e-04 -1.739379e-04 -1.231670e-04 -3.272787e-04 8.061837e-05 1.728904e-04
          1.353934e-04 1.456577e-04 1.472295e-04 1.267955e-04 1.024331e-04 7.102947e-06
          4.337422e-04 3.970382e-04 3.833596e-04 4.033292e-04 4.159427e-04 4.195491e-04
          2.470819e-04 4.244102e-06 3.920528e-05 1.461915e-04 1.511682e-04 1.422985e-04
          7.486009e-05 2.670446e-05 6.968342e-05 1.115344e-04 -1.849636e-04 -4.181671e-04
          -4.350393e-04 -4.345822e-04 -3.182742e-04 4.817874e-06 3.835227e-05 4.136960e-05
          2.432813e-05 -3.469129e-04 -4.213460e-04 -4.302822e-04 -4.370026e-04 -4.152367e-04
          -1.481180e-04 7.821254e-05 9.960924e-05 9.294113e-05 7.724026e-05 5.792479e-05
          3.362340e-05 -3.457053e-05 -1.135901e-04 -2.826269e-05 -1.093875e-05 1.092891e-04
          1.533788e-04 1.502061e-04 1.472003e-04 1.555931e-04 1.647491e-04 1.583641e-04
          4.560653e-04 4.628103e-04 4.589178e-04 4.602568e-04 4.589738e-04 4.447186e-04
          3.697832e-04 1.232986e-04 2.011655e-04 3.419218e-04 3.735690e-04 3.788553e-04
          4.349972e-04 4.901480e-04 4.812967e-04 4.366905e-04 3.381614e-05 -3.943269e-04
          -4.349690e-04 -4.249992e-04 -2.489594e-04 4.622874e-04 4.986451e-04 4.974831e-04
          4.588018e-04 -3.262642e-04 -4.428288e-04 -4.401533e-04 -4.193742e-04 -3.456177e-04
          8.478160e-05 4.533928e-04 4.765854e-04 4.799485e-04 4.807833e-04 4.669882e-04
          4.417190e-04 4.220791e-04 3.255738e-04 8.504350e-05 1.576699e-04 3.348347e-04
          3.809595e-04 3.961455e-04 4.008144e-04 3.982189e-04 3.925801e-04 3.290242e-04
          3.932447e-04 5.351989e-04 5.782210e-04 5.114744e-04 4.455691e-04 3.349501e-04
          4.180947e-04 9.739038e-05 1.984134e-04 3.041604e-04 3.925747e-04 3.793551e-04
          4.373547e-04 5.562823e-04 3.796370e-04 1.458868e-04 9.128870e-05 -2.533679e-04
          -3.044072e-04 -2.766574e-04 -2.189230e-04 5.241774e-04 4.818082e-04 4.659878e-04
          4.226374e-04 -3.706415e-04 -4.187589e-04 -3.788809e-04 -2.991287e-04 -1.770526e-04
          4.541993e-05 2.508867e-04 2.445250e-04 2.780184e-04 3.533540e-04 4.239783e-04
          4.602586e-04 6.186452e-04 6.252276e-04 -2.130202e-04 2.968204e-04 4.886212e-04
          4.478287e-04 4.910757e-04 5.071021e-04 4.658157e-04 4.135570e-04 2.081326e-04
          3.280085e-04 2.122629e-04 1.712394e-04 2.295852e-04 2.802160e-04 3.447782e-04
          1.243270e-04 2.934406e-05 4.374470e-05 1.427225e-04 1.083714e-04 1.065852e-04
          1.075786e-05 -9.653608e-05 4.127641e-05 1.990526e-04 -1.976805e-04 -3.718189e-04
          -3.723030e-04 -3.840730e-04 -2.410625e-04 -1.096840e-04 -4.050196e-05 -2.883647e-05
          -3.376989e-05 -2.085555e-04 -2.944647e-04 -3.257951e-04 -3.715350e-04 -3.959829e-04
          -1.150546e-04 1.137811e-04 1.457562e-04 1.212229e-04 6.230468e-05 -4.201424e-06
          -5.952945e-05 -2.232830e-04 -3.357836e-04 1.548083e-04 -8.508470e-05 -5.588663e-06
          8.099376e-05 5.898834e-05 4.837861e-05 7.926866e-05 1.163789e-04 2.049266e-04
          1.576560e-04 4.113625e-04 4.995665e-04 3.695140e-04 2.392465e-04 3.151004e-05
          2.366154e-04 -3.799074e-05 5.068376e-05 6.030436e-05 1.824713e-04 1.096422e-04
          -1.005975e-04 -1.106788e-04 -4.406341e-04 -7.932040e-04 -1.434187e-04 8.122122e-06
          -1.121140e-05 2.501893e-05 -1.939699e-04 -1.388004e-04 -3.008272e-04 -3.298794e-04
          -3.390107e-04 -3.612909e-04 -2.333939e-04 -1.631626e-04 -5.157840e-05 3.996441e-05
          -3.458190e-04 -6.470245e-04 -7.012214e-04 -6.428766e-04 -4.931772e-04 -3.190280e-04
          -1.989916e-04 1.285942e-04 3.224542e-04 -7.458660e-04 3.149428e-04 4.516028e-04
          2.946743e-04 3.464587e-04 3.643320e-04 2.878310e-04 1.960514e-04 -1.098307e-04
          3.477509e-04 3.542964e-04 3.571370e-04 3.487061e-04 3.302345e-04 2.834680e-04
          1.781020e-04 3.868895e-05 1.157247e-04 2.231194e-04 2.484865e-04 1.786601e-04
          -2.116837e-04 -4.498352e-04 -4.878123e-04 -4.905326e-04 -4.000478e-04 -3.214434e-04
          -3.137167e-04 -3.091408e-04 -3.416765e-04 -4.799936e-04 -5.163853e-04 -5.197172e-04
          -5.134509e-04 -3.796631e-04 -3.553559e-04 -3.531696e-04 -3.523486e-04 -3.623006e-04
          -4.476072e-04 -5.187396e-04 -5.232990e-04 -5.188109e-04 -4.980675e-04 -4.659071e-04
          -4.520900e-04 -4.470432e-04 -4.200170e-04 -3.151879e-04 1.198166e-04 2.863757e-04
          2.876820e-04 2.860018e-04 2.799665e-04 2.714052e-04 2.620063e-04 1.954456e-04
          1.974130e-04 2.211967e-04 2.227763e-04 2.039146e-04 1.801353e-04 1.319512e-04
          2.007259e-04 3.241679e-04 4.943219e-04 6.601023e-04 7.039666e-04 6.141519e-04
          1.252203e-04 -1.680806e-04 -2.529436e-04 -3.080410e-04 -2.093330e-04 -1.499716e-04
          -1.444219e-04 -1.340312e-04 -1.494983e-04 -2.069673e-04 -2.538415e-04 -2.595238e-04
          -2.581138e-04 -2.106261e-04 -1.939859e-04 -1.887008e-04 -1.798720e-04 -1.791312e-04
          -2.464669e-04 -3.059373e-04 -3.157601e-04 -3.055696e-04 -2.769931e-04 -2.490025e-04
          -2.435443e-04 -2.067695e-04 -1.633926e-04 -1.297949e-04 4.570760e-04 7.253609e-04
          7.483076e-04 7.580457e-04 7.537139e-04 7.388880e-04 7.208351e-04 6.137302e-04
          -1.401523e-04 -1.345540e-04 -1.494112e-04 -1.573334e-04 -1.585482e-04 -1.543729e-04
          1.392485e-04 6.575331e-04 8.906815e-04 1.080441e-03 1.118335e-03 1.055415e-03
          7.071538e-04 4.914945e-04 4.184726e-04 3.477277e-04 2.636644e-04 1.818622e-04
          1.782868e-04 1.889574e-04 2.645350e-04 4.599642e-04 4.485213e-04 4.458904e-04
          4.345961e-04 2.117817e-04 1.731922e-04 1.711832e-04 1.758259e-04 1.910190e-04
          3.003625e-04 3.827483e-04 3.797481e-04 3.862995e-04 3.914207e-04 3.700675e-04
          3.379803e-04 3.605850e-04 3.686163e-04 3.805844e-04 7.600969e-04 1.056478e-03
          1.131798e-03 1.150529e-03 1.149623e-03 1.142543e-03 1.132025e-03 1.050201e-03
          -1.706953e-04 -1.861456e-04 -2.057919e-04 -1.999459e-04 -1.862344e-04 -1.560114e-04
          8.438655e-05 5.305831e-04 6.973131e-04 8.335413e-04 8.512039e-04 8.262945e-04
          6.785223e-04 5.792578e-04 5.551169e-04 5.208117e-04 3.361887e-04 1.910198e-04
          1.830143e-04 1.886507e-04 2.936451e-04 5.615616e-04 5.785650e-04 5.793839e-04
          5.651335e-04 2.660115e-04 2.062970e-04 1.991302e-04 1.964801e-04 2.127627e-04
          3.993539e-04 5.475061e-04 5.529210e-04 5.529647e-04 5.402202e-04 4.997762e-04
          4.586114e-04 4.488375e-04 4.227620e-04 4.563487e-04 5.674468e-04 7.669752e-04