<?xml version="1.0"?>
<VTKFile type="RectilinearGrid" version="0.1" byte_order="LittleEndian">
  <RectilinearGrid WholeExtent="0 47 0 47 0 47">
    <Piece Extent="0 47 0 47 0 47">
      <PointData Scalars="concentration">
        <DataArray type="Float32" Name="concentration" NumberOfComponents="1" format="ascii">
          1.560253e-05 5.269587e-05 6.614745e-05 4.923608e-05 3.356291e-05 1.065397e-05
          3.226177e-05 -4.906497e-05 -6.053227e-05 -7.937205e-05 -6.560339e-05 -5.594403e-05
          3.069112e-05 1.039802e-04 6.722818e-05 1.483712e-05 4.910616e-05 7.871091e-06
          -1.697307e-06 3.302737e-06 -6.437257e-06 1.052623e-04 9.435185e-05 9.067656e-05
          8.404466e-05 -2.871624e-05 -2.642651e-05 -1.588352e-05 2.752615e-06 2.682108e-05
          3.248500e-05 4.233439e-05 3.822385e-05 4.594128e-05 6.362882e-05 8.270015e-05
          9.696409e-05 1.407877e-04 1.514232e-04 -6.219447e-05 -1.739671e-05 -3.344344e-05
          -5.724635e-05 -4.870482e-05 -4.419550e-05 -5.335130e-05 -6.510055e-05 -9.813650e-05
          -9.037331e-05 -5.462850e-05 -4.789197e-05 -6.324853e-05 -7.232442e-05 -7.822060e-05
          5.931735e-05 1.567056e-04 2.001429e-04 2.208005e-04 2.407506e-04 2.561111e-04
          3.774374e-04 4.727898e-04 4.275649e-04 3.509666e-04 2.730131e-04 1.244397e-04
          1.060816e-04 1.138504e-04 1.623953e-04 4.713793e-04 4.750458e-04 4.717713e-04
          4.546242e-04 1.281598e-04 9.458588e-05 1.035934e-04 1.252787e-04 1.662236e-04
          2.918221e-04 4.001257e-04 3.998685e-04 4.081594e-04 4.194496e-04 4.179492e-04
          4.136090e-04 4.580568e-04 4.484400e-04 1.791978e-04 1.942678e-04 2.341682e-04
          2.400350e-04 2.565590e-04 2.633402e-04 2.550077e-04 2.431808e-04 2.017102e-04
          -1.739522e-04 5.047636e-05 1.206250e-04 1.100375e-05 -8.631908e-05 -2.226229e-04
          1.614800e-04 1.836533e-04 2.786425e-04 2.704970e-04 3.734743e-04 3.663144e-04
          5.118755e-04 7.115085e-04 4.299417e-04 7.932183e-05 4.223386e-04 3.245627e-04
          2.858957e-04 3.198561e-04 2.340451e-04 7.016796e-04 6.030906e-04 5.794401e-04
          5.496233e-04 8.698756e-05 1.293251e-04 1.900397e-04 2.965842e-04 4.157772e-04
          3.205096e-04 2.593254e-04 2.209136e-04 2.715712e-04 3.848017e-04 4.939698e-04
          5.682516e-04 8.595257e-04 9.797653e-04 -1.604856e-04 4.543271e-04 5.407800e-04
          4.369552e-04 4.960594e-04 5.197989e-04 4.576213e-04 3.804164e-04 1.347346e-04
          -7.472285e-05 -2.417835e-04 -3.049356e-04 -2.199557e-04 -1.340389e-04 2.910857e-06
          -7.450303e-05 2.032733e-04 2.132625e-04 2.737221e-04 2.058858e-04 2.374368e-04
          2.857222e-04 2.378805e-04 4.380943e-04 6.509518e-04 1.515663e-04 -1.769823e-05
          -1.029144e-05 -3.050726e-05 1.541794e-04 2.447013e-04 3.532337e-04 3.717165e-04
          3.706235e-04 2.427979e-04 1.347302e-04 8.750611e-05 1.664515e-05 -3.222051e-05
          3.002636e-04 5.630623e-04 6.009337e-04 5.641791e-04 4.662081e-04 3.439136e-04
          2.533178e-04 3.777456e-05 -1.002311e-04 5.918195e-04 -5.937694e-07 7.579124e-06
          1.364702e-04 1.083070e-04 9.641844e-05 1.451424e-04 2.029385e-04 3.776446e-04
          -5.522197e-05 1.010719e-04 1.553353e-04 7.750485e-05 3.637234e-06 -1.061888e-04
          7.019520e-05 -3.772560e-05 -1.483013e-05 -5.509020e-05 1.062586e-05 -5.047021e-06
          3.131024e-05 1.276341e-04 -6.325388e-05 -2.836170e-04 8.580196e-05 1.476943e-04
          1.322049e-04 1.530017e-04 2.951775e-05 1.230187e-04 3.708743e-05 2.026882e-05
          1.180948e-05 -5.889296e-05 1.099394e-05 5.403893e-05 1.236698e-04 1.854943e-04
          -2.052364e-05 -1.793255e-04 -2.115217e-04 -1.768353e-04 -9.191866e-05 3.297745e-06
          7.248038e-05 2.759867e-04 3.862778e-04 -3.289402e-04 1.486229e-04 1.627393e-04
          6.396876e-05 9.726258e-05 1.110225e-04 6.685134e-05 1.321900e-05 -1.498911e-04
          2.919968e-05 1.875115e-04 2.479589e-04 1.682578e-04 8.823213e-05 -3.678674e-05
          4.206055e-05 -2.163539e-04 -2.414355e-04 -3.177245e-04 -2.573353e-04 -2.783017e-04
          -2.736604e-04 -1.973256e-04 -3.821000e-04 -5.823529e-04 -1.076215e-04 5.385697e-05
          4.648237e-05 6.489333e-05 -1.123024e-04 -1.993003e-04 -2.989659e-04 -3.162306e-04
          -3.150913e-04 -1.898717e-04 -8.684590e-05 -4.225383e-05 2.486318e-05 7.142953e-05
          -2.459724e-04 -4.963502e-04 -5.324648e-04 -4.980806e-04 -4.070853e-04 -2.933170e-04
          -2.072943e-04 -2.734779e-06 1.272371e-04 -5.404559e-04 -3.421011e-05 -7.029485e-05
          -1.958663e-04 -1.694618e-04 -1.576490e-04 -2.028047e-04 -2.566547e-04 -4.127110e-04
          1.026755e-04 -1.163393e-04 -1.863286e-04 -7.722685e-05 2.284530e-05 1.692000e-04
          -1.654510e-04 -1.463983e-04 -2.437242e-04 -2.454522e-04 -3.483911e-04 -3.212619e-04
          -3.467323e-04 -4.677025e-04 -1.864189e-04 1.465665e-04 -2.655067e-04 -2.486105e-04
          -2.186234e-04 -2.513288e-04 -1.339426e-04 -4.530594e-04 -3.418254e-04 -3.181908e-04
          -2.962592e-04 1.005805e-05 -5.416117e-05 -1.137404e-04 -2.149319e-04 -3.178731e-04
          -1.439216e-04 -1.543423e-05 2.561855e-05 -2.424741e-05 -1.405228e-04 -2.595004e-04
          -3.404919e-04 -6.262768e-04 -7.623740e-04 2.844064e-04 -4.268877e-04 -5.302380e-04
          -4.210302e-04 -4.752597e-04 -4.960291e-04 -4.333482e-04 -3.566192e-04 -1.074807e-04
          -7.680769e-05 2.491966e-04 3.632734e-04 2.013250e-04 4.740058e-05 -1.830421e-04
          1.589862e-04 -1.191891e-04 -8.347875e-05 -1.727172e-04 -3.652664e-05 -6.432145e-05
          3.980686e-05 2.593220e-04 -1.340412e-04 -5.911482e-04 1.611870e-04 2.704617e-04
          2.360542e-04 2.792277e-04 2.673399e-05 2.503341e-04 7.412611e-05 3.911175e-05
          2.007241e-05 -1.586463e-04 -1.702999e-05 7.329907e-05 2.192476e-04 3.513795e-04
          -6.022186e-05 -3.753759e-04 -4.407778e-04 -3.687067e-04 -1.918638e-04 7.527625e-06
          1.526508e-04 5.744269e-04 7.980270e-04 -7.091664e-04 2.643534e-04 2.830999e-04
          7.434428e-05 1.432170e-04 1.723495e-04 8.050912e-05 -3.090806e-05 -3.691479e-04
          -5.543703e-05 -8.180712e-05 -9.293926e-05 -7.816166e-05 -6.102461e-05 -3.040035e-05
          -1.428306e-05 5.803935e-05 5.794145e-05 6.247207e-05 5.041625e-05 6.900760e-05
          1.553970e-04 1.978157e-04 2.336060e-04 2.604625e-04 1.256497e-04 4.212905e-05
          3.782564e-05 3.495719e-05 8.861852e-05 2.020853e-04 2.297185e-04 2.329949e-04
          2.276523e-04 1.022027e-04 6.859282e-05 6.099325e-05 5.178900e-05 5.365145e-05
          1.648628e-04 2.560707e-04 2.647048e-04 2.586296e-04 2.392024e-04 2.111797e-04
          1.907587e-04 1.556546e-04 1.204039e-04 1.831517e-04 1.531482e-05 5.881522e-06
          3.222492e-05 3.025769e-05 3.011552e-05 3.907857e-05 4.913825e-05 8.241872e-05
          -1.038110e-04 -7.192760e-05 -6.508071e-05 -7.892842e-05 -8.717491e-05 -9.219311e-05
          2.804978e-05 1.152775e-04 1.434675e-04 1.485527e-04 1.637394e-04 1.788426e-04
          2.936311e-04 3.818792e-04 3.432649e-04 2.784226e-04 2.356129e-04 1.299398e-04
          1.160527e-04 1.220496e-04 1.528484e-04 3.831093e-04 3.843398e-04 3.814294e-04
          3.685841e-04 1.277612e-04 1.058109e-04 1.139181e-04 1.322717e-04 1.644573e-04
          2.481744e-04 3.208595e-04 3.192636e-04 3.264449e-04 3.366106e-04 3.369868e-04
          3.356730e-04 3.767173e-04 3.738495e-04 1.440808e-04 1.448056e-04 1.622619e-04
          1.624575e-04 1.759918e-04 1.819386e-04 1.745236e-04 1.643692e-04 1.326532e-04
          -1.106386e-04 -7.485683e-05 -6.701870e-05 -8.275975e-05 -9.257287e-05 -9.964035e-05
          3.170625e-05 1.263428e-04 1.585390e-04 1.651493e-04 1.824302e-04 1.972077e-04
          3.134569e-04 4.045032e-04 3.604070e-04 2.885260e-04 2.493996e-04 1.398056e-04
          1.251421e-04 1.317720e-04 1.625694e-04 4.054127e-04 4.051159e-04 4.017777e-04
          3.881769e-04 1.344184e-04 1.124132e-04 1.215037e-04 1.418429e-04 1.763950e-04
          2.611213e-04 3.347754e-04 3.325310e-04 3.406671e-04 3.526783e-04 3.544536e-04
          3.538986e-04 4.002756e-04 3.991961e-04 1.485063e-04 1.612758e-04 1.827433e-04
          1.820739e-04 1.969656e-04 2.033845e-04 1.947886e-04 1.831936e-04 1.466805e-04
          -1.032002e-05 -8.616435e-06 -7.545031e-06 -7.020382e-06 -5.775178e-06 -2.397436e-06
          -5.515618e-06 -3.189569e-05 -4.877486e-05 -6.443311e-05 -6.679079e-05 -5.394479e-05
          2.131102e-05 6.983407e-05 7.520276e-05 7.269980e-05 4.400877e-05 1.012431e-05
          6.354847e-06 6.019779e-06 1.637326e-05 7.373385e-05 8.041072e-05 8.050683e-05
          7.755661e-05 1.768370e-05 9.778601e-06 1.035033e-05 1.253872e-05 1.900062e-05
          5.024535e-05 7.754636e-05 7.925015e-05 7.915663e-05 7.743137e-05 7.487922e-05
          7.407751e-05 7.427101e-05 6.544000e-05 2.311794e-05 -4.291881e-05 -6.881031e-05
          -7.144780e-05 -7.053724e-05 -6.916479e-05 -6.859025e-05 -6.815317e-05 -6.156556e-05
          8.553317e-05 7.125369e-05 7.122570e-05 7.916740e-05 8.345785e-05 8.565700e-05
          -2.484356e-05 -1.772624e-04 -2.351412e-04 -2.720400e-04 -2.853762e-04 -2.755601e-04
          -2.323351e-04 -2.118076e-04 -1.796706e-04 -1.408639e-04 -1.338607e-04 -1.023759e-04
          -9.862465e-05 -1.030545e-04 -1.192232e-04 -2.062054e-04 -2.005181e-04 -1.988968e-04
          -1.937818e-04 -1.011364e-04 -9.211907e-05 -9.511512e-05 -1.024209e-04 -1.140727e-04
          -1.415903e-04 -1.634549e-04 -1.606733e-04 -1.649284e-04 -1.710664e-04 -1.688320e-04
          -1.638422e-04 -1.868021e-04 -1.943525e-04 -1.203489e-04 -2.117863e-04 -2.758976e-04
          -2.887363e-04 -2.970934e-04 -2.989209e-04 -2.941981e-04 -2.879828e-04 -2.589956e-04
          7.095114e-05 1.247848e-04 1.473458e-04 1.213817e-04 9.401635e-05 4.902683e-05
          2.592083e-05 -1.604983e-04 -1.963061e-04 -2.379336e-04 -2.201761e-04 -2.181299e-04
          -1.633700e-04 -1.028607e-04 -1.561258e-04 -2.178048e-04 -7.588672e-05 -4.346481e-05
          -4.867968e-05 -4.322664e-05 -1.004385e-04 -1.013364e-04 -1.308795e-04 -1.366049e-04
          -1.375830e-04 -1.259193e-04 -9.441753e-05 -7.867667e-05 -5.472276e-05 -3.532197e-05
          -1.246414e-04 -1.924721e-04 -2.024512e-04 -1.913543e-04 -1.608717e-04 -1.196325e-04
          -8.755075e-05 -2.245875e-05 1.281949e-05 -2.361558e-04 -1.098789e-04 -1.500641e-04
          -2.002835e-04 -1.927013e-04 -1.882290e-04 -2.029064e-04 -2.204042e-04 -2.673091e-04
          3.634092e-05 -3.273503e-05 -5.658751e-05 -2.061730e-05 1.427890e-05 6.712443e-05
          -1.958610e-05 -8.591403e-06 -3.223449e-05 -2.289630e-05 -5.367229e-05 -3.320370e-05
          2.956940e-05 3.773743e-05 1.296612e-04 2.252787e-04 8.008184e-06 -7.562349e-05
          -7.445282e-05 -8.365729e-05 -8.252202e-06 4.240935e-05 9.010435e-05 9.784536e-05
          9.686248e-05 2.955409e-05 -1.604858e-05 -3.486457e-05 -6.342941e-05 -8.150480e-05
          6.533942e-05 1.835101e-04 2.011134e-04 1.853404e-04 1.449716e-04 9.828358e-05
          6.466080e-05 -2.876541e-05 -9.270175e-05 1.782389e-04 -1.029637e-04 -1.269739e-04
          -8.233656e-05 -9.585782e-05 -1.005392e-04 -7.989075e-05 -5.526052e-05 2.257267e-05
          -2.624407e-05 7.375622e-05 1.063053e-04 5.802891e-05 1.435305e-05 -4.901140e-05
          8.628115e-05 2.591074e-05 5.223670e-05 4.147765e-05 8.619467e-05 8.789227e-05
          1.812102e-04 2.890107e-04 1.693230e-04 1.713743e-05 1.547397e-04 9.387930e-05
          7.468416e-05 8.944250e-05 5.427322e-05 2.853043e-04 2.439613e-04 2.334733e-04
          2.191176e-04 -1.202891e-05 3.877840e-06 3.145402e-05 7.972562e-05 1.355252e-04
          1.079267e-04 9.416231e-05 7.880028e-05 1.010614e-04 1.515373e-04 2.022766e-04
          2.372244e-04 3.638099e-04 4.109993e-04 -1.111677e-04 1.407184e-04 1.653306e-04
          1.145737e-04 1.400136e-04 1.508652e-04 1.234077e-04 8.938509e-05 -1.764962e-05
          3.419277e-05 -2.364854e-05 -4.421324e-05 -1.426197e-05 1.500358e-05 5.919765e-05
          -5.311307e-06 1.702995e-05 6.470007e-06 2.328171e-05 -7.537392e-07 1.425212e-05
          5.506863e-05 5.483412e-05 1.295022e-04 2.068073e-04 1.499779e-05 -6.477495e-05
          -6.456181e-05 -7.177509e-05 -3.019958e-06 5.725044e-05 9.744221e-05 1.038425e-04
          1.020155e-04 2.572047e-05 -1.579508e-05 -3.167661e-05 -5.520527e-05 -6.868928e-05
          6.516071e-05 1.730836e-04 1.880948e-04 1.751620e-04 1.414270e-04 1.012887e-04
          7.157151e-05 -6.577355e-06 -6.157983e-05 1.632255e-04 -5.813783e-05 -6.501483e-05
          -2.419603e-05 -3.467963e-05 -3.854338e-05 -2.149696e-05 -1.326453e-06 6.024092e-05
          5.638291e-05 7.812190e-06 -5.679081e-06 1.891356e-05 4.042582e-05 7.014703e-05
          -4.112002e-05 -1.041112e-04 -1.482848e-04 -1.647323e-04 -1.904676e-04 -1.796067e-04
          -1.581200e-04 -1.676645e-04 -9.886381e-05 -1.844260e-05 -1.015402e-04 -9.149344e-05
          -8.471561e-05 -9.298291e-05 -7.445220e-05 -1.620708e-04 -1.370358e-04 -1.317954e-04
          -1.259610e-04 -3.910995e-05 -4.953335e-05 -6.235735e-05 -8.477805e-05 -1.084717e-04
          -7.990115e-05 -5.866948e-05 -4.926001e-05 -6.066539e-05 -8.614561e-05 -1.088559e-04
          -1.228717e-04 -1.882028e-04 -2.194942e-04 9.430675e-06 -1.741646e-04 -2.225793e-04
          -2.065587e-04 -2.203485e-04 -2.248868e-04 -2.107432e-04 -1.933176e-04 -1.321790e-04
          1.472016e-05 2.738719e-04 3.690957e-04 2.397085e-04 1.130394e-04 -8.195196e-05
          1.070210e-04 -2.404783e-04 -2.509968e-04 -3.496093e-04 -2.460898e-04 -2.722302e-04
          -2.149949e-04 -5.717754e-05 -3.628398e-04 -7.079907e-04 -3.177975e-05 1.312939e-04
          1.104262e-04 1.424775e-04 -9.891394e-05 -6.224859e-05 -2.123062e-04 -2.404077e-04
          -2.480089e-04 -2.374223e-04 -9.961495e-05 -2.706350e-05 8.655160e-05 1.791611e-04
          -2.323741e-04 -5.523547e-04 -6.070372e-04 -5.502137e-04 -4.055963e-04 -2.328448e-04
          -1.045940e-04 2.293529e-04 4.208818e-04 -7.338741e-04 5.945536e-05 3.473158e-05
          -1.518392e-04 -1.027683e-04 -8.120189e-05 -1.548023e-04 -2.432362e-04 -5.051786e-04
          1.005374e-04 -2.917410e-05 -6.783512e-05 -3.233019e-06 5.421207e-05 1.354663e-04
          -1.115749e-04 -1.800518e-04 -2.653039e-04 -2.870903e-04 -3.517591e-04 -3.340288e-04
          -3.409977e-04 -4.078115e-04 -2.349181e-04 -2.728831e-05 -2.357844e-04 -1.919482e-04
          -1.714722e-04 -1.923852e-04 -1.428841e-04 -3.966545e-04 -3.342404e-04 -3.203341e-04
          -3.038487e-04 -5.172577e-05 -7.774142e-05 -1.125631e-04 -1.734494e-04 -2.398639e-04
          -1.757070e-04 -1.312082e-04 -1.078390e-04 -1.377858e-04 -2.051427e-04 -2.684866e-04
          -3.094767e-04 -4.800054e-04 -5.556549e-04 7.884131e-05 -3.529915e-04 -4.451462e-04
          -3.928812e-04 -4.281062e-04 -4.408949e-04 -4.038425e-04 -3.580319e-04 -2.038687e-04
          1.153228e-04 9.209314e-05 9.360645e-05 1.042361e-04 1.075179e-04 1.038742e-04
          -8.334556e-05 -3.094026e-04 -4.048442e-04 -4.731385e-04 -4.962313e-04 -4.963307e-04
          -5.216285e-04 -5.508646e-04 -5.048282e-04 -4.324553e-04 -3.127323e-04 -1.505215e-04
          -1.337135e-04 -1.422357e-04 -2.145945e-04 -5.421235e-04 -5.487856e-04 -5.465585e-04
          -5.285212e-04 -1.763677e-04 -1.307330e-04 -1.356046e-04 -1.517570e-04 -1.888015e-04
          -3.469957e-04 -4.790272e-04 -4.805046e-04 -4.872130e-04 -4.928372e-04 -4.791607e-04
          -4.622773e-04 -4.942162e-04 -4.793758e-04 -2.843357e-04 -3.557457e-04 -4.638217e-04
          -4.948680e-04 -5.123082e-04 -5.174171e-04 -5.111429e-04 -5.016897e-04 -4.550146e-04
          1.235295e-04 1.660592e-04 1.923963e-04 1.696544e-04 1.394045e-04 8.317323e-05
          -6.718685e-05 -3.897807e-04 -4.915691e-04 -5.888627e-04 -5.863293e-04 -5.978310e-04
          -6.367655e-04 -6.443228e-04 -6.767767e-04 -6.876908e-04 -3.624599e-04 -1.242313e-04
          -1.093937e-04 -1.103132e-04 -2.591207e-04 -6.370850e-04 -6.868019e-04 -6.917915e-04
          -6.725362e-04 -2.533426e-04 -1.626398e-04 -1.490163e-04 -1.376563e-04 -1.570731e-04
          -4.555159e-04 -6.990943e-04 -7.160541e-04 -7.084296e-04 -6.758186e-04 -6.143388e-04
          -5.614985e-04 -5.077032e-04 -4.363030e-04 -5.106636e-04 -3.577179e-04 -4.758328e-04
          -5.585852e-04 -5.651560e-04 -5.655689e-04 -5.783278e-04 -5.913161e-04 -6.110057e-04
          1.448881e-04 -1.378912e-04 -2.267387e-04 -8.671361e-05 4.007905e-05 2.230033e-04
          -2.337391e-04 -2.354468e-04 -3.717061e-04 -3.842144e-04 -5.188237e-04 -4.906968e-04
          -5.648495e-04 -7.481385e-04 -3.852812e-04 5.293106e-05 -4.198078e-04 -3.381177e-04
          -2.934800e-04 -3.371324e-04 -2.125687e-04 -7.288732e-04 -5.935738e-04 -5.632817e-04
          -5.294576e-04 -2.152617e-05 -8.644630e-05 -1.632054e-04 -2.958910e-04 -4.390972e-04
          -2.770346e-04 -1.642023e-04 -1.138903e-04 -1.784035e-04 -3.260048e-04 -4.721019e-04
          -5.700926e-04 -9.373652e-04 -1.099882e-03 2.899125e-04 -5.951380e-04 -7.405111e-04
          -6.086498e-04 -6.814956e-04 -7.094330e-04 -6.293830e-04 -5.303352e-04 -2.071882e-04
          -6.951688e-05 1.653576e-04 2.484399e-04 1.308773e-04 1.808805e-05 -1.517732e-04
          8.756182e-05 -1.077563e-04 -8.689614e-05 -1.596648e-04 -6.304242e-05 -9.020936e-05
          -5.791821e-05 7.188757e-05 -2.135738e-04 -5.369692e-04 6.454890e-05 2.040445e-04
          1.852994e-04 2.152130e-04 7.601315e-06 6.595225e-05 -6.915408e-05 -9.456489e-05
          -1.028812e-04 -1.203647e-04 -9.233748e-07 6.409636e-05 1.670986e-04 2.519741e-04
          -1.068374e-04 -3.870756e-04 -4.373279e-04 -3.854299e-04 -2.559753e-04 -1.066357e-04
          3.091721e-06 3.098332e-04 4.852575e-04 -5.620557e-04 1.718825e-04 1.770549e-04
          1.986428e-05 6.728675e-05 8.721161e-05 2.025243e-05 -6.008971e-05 -3.023554e-04
          -7.177220e-05 -8.445874e-05 -9.269929e-05 -8.624561e-05 -7.714486e-05 -5.927807e-05
          2.434459e-06 1.341122e-04 1.684502e-04 1.955997e-04 1.944041e-04 1.956122e-04
          1.936352e-04 1.863770e-04 1.937840e-04 1.966422e-04 1.197050e-04 6.989641e-05
          6.784881e-05 6.766885e-05 1.049276e-04 1.848702e-04 1.973470e-04 1.987838e-04
          1.947024e-04 1.057368e-04 8.398634e-05 7.964351e-05 7.546613e-05 7.762817e-05
          1.461547e-04 2.008098e-04 2.044001e-04 2.021804e-04 1.924667e-04 1.739979e-04
          1.585056e-04 1.447822e-04 1.293684e-04 1.641196e-04 1.261936e-04 1.611569e-04
          1.858988e-04 1.877744e-04 1.877559e-04 1.913066e-04 1.952246e-04 2.018436e-04
          -2.110884e-05 -6.553102e-05 -8.610342e-05 -6.405528e-05 -4.013265e-05 -1.504068e-06
          3.046058e-05 1.901727e-04 2.414375e-04 3.022004e-04 2.926679e-04 2.918738e-04
          2.548396e-04 2.120499e-04 2.535993e-04 2.951648e-04 1.067331e-04 7.782823e-06
          5.627036e-06 2.755338e-06 8.318220e-05 2.066854e-04 2.382495e-04 2.429355e-04
          2.370978e-04 9.248634e-05 4.523444e-05 3.196708e-05 1.504617e-05 1.073476e-05
          1.601117e-04 2.799311e-04 2.917123e-04 2.830290e-04 2.564841e-04 2.166417e-04
          1.832545e-04 1.265709e-04 8.165019e-05 2.516614e-04 1.540511e-04 2.220919e-04
          2.755517e-04 2.726091e-04 2.698524e-04 2.819763e-04 2.957184e-04 3.248785e-04
          -1.465193e-05 1.407173e-04 1.910663e-04 1.130932e-04 4.002878e-05 -6.994235e-05
          1.415249e-04 8.983596e-05 1.629004e-04 1.746841e-04 2.500765e-04 2.233273e-04
          1.990390e-04 2.589078e-04 5.746039e-05 -1.761499e-04 1.245348e-04 1.205096e-04
          9.989978e-05 1.233967e-04 3.606507e-05 2.451731e-04 1.625071e-04 1.454678e-04
          1.306130e-04 -6.980903e-05 -2.160891e-05 2.065570e-05 9.231857e-05 1.642363e-04
          3.167016e-05 -6.643817e-05 -9.579772e-05 -6.012258e-05 2.454686e-05 1.133053e-04
          1.730535e-04 3.742910e-04 4.725850e-04 -2.546108e-04 2.959686e-04 3.849498e-04
          3.063786e-04 3.439774e-04 3.579412e-04 3.129349e-04 2.576594e-04 7.446530e-05
          7.251320e-05 -3.625237e-05 -7.479003e-05 -2.106824e-05 2.936086e-05 1.028317e-04
          -1.849790e-05 6.190540e-05 6.412633e-05 1.129022e-04 7.134657e-05 7.461492e-05
          6.987203e-06 -8.583726e-05 4.201648e-05 1.921197e-04 -7.707476e-05 -1.319543e-04
          -1.220695e-04 -1.355660e-04 -4.224335e-05 -8.696700e-05 -2.866126e-05 -1.719656e-05
          -1.264482e-05 1.257039e-05 -4.026358e-05 -7.056839e-05 -1.184372e-04 -1.594152e-04
          -2.739093e-06 1.190597e-04 1.417739e-04 1.181602e-04 6.022822e-05 -5.725807e-06
          -5.545007e-05 -1.977750e-04 -2.758965e-04 2.271972e-04 -5.761989e-05 -3.669648e-05
          3.754078e-05 1.534345e-05 5.371733e-06 3.557109e-05 7.181292e-05 1.758706e-04
          2.903858e-05 1.805261e-04 2.338654e-04 1.575223e-04 8.309323e-05 -3.225818e-05
          1.031099e-04 -5.441073e-05 -2.574396e-05 -4.914195e-05 1.804039e-05 -7.898407e-06
          -3.343918e-05 2.267312e-05 -1.652714e-04 -3.753707e-04 -6.296978e-06 6.429171e-05
          5.038239e-05 7.093562e-05 -5.408918e-05 1.327368e-05 -7.536091e-05 -9.202394e-05
          -9.915576e-05 -1.456168e-04 -7.416951e-05 -3.220782e-05 3.505175e-05 9.307385e-05
          -1.184415e-04 -2.818312e-04 -3.130902e-04 -2.791018e-04 -1.936684e-04 -9.520922e-05
          -2.504298e-05 1.702976e-04 2.795213e-04 -3.924075e-04 1.369036e-04 1.736007e-04
          7.651724e-05 1.075875e-04 1.198905e-04 7.607568e-05 2.303320e-05 -1.446119e-04
          3.235302e-05 -2.528530e-05 -4.541361e-05 -1.683037e-05 1.003850e-05 4.948032e-05
          -1.687837e-05 2.197618e-05 1.832704e-05 3.896942e-05 1.592400e-05 1.934335e-05
          -7.159626e-06 -5.068659e-05 1.838868e-05 9.902556e-05 -3.979600e-05 -6.516700e-05
          -5.965965e-05 -6.709713e-05 -1.989819e-05 -5.024513e-05 -1.911184e-05 -1.299636e-05
          -1.022083e-05 1.088280e-05 -1.584232e-05 -3.187756e-05 -5.738630e-05 -7.965875e-05
          -9.046824e-07 6.019690e-05 7.208051e-05 5.945005e-05 2.851920e-05 -6.299233e-06
          -3.206913e-05 -1.074397e-04 -1.483554e-04 1.177664e-04 -4.385848e-05 -4.040605e-05
          -2.640108e-06 -1.473523e-05 -1.995006e-05 -3.772408e-06 1.567710e-05 7.309219e-05
          2.145698e-05 8.954679e-05 1.139822e-04 8.002968e-05 4.661184e-05 -5.321187e-06
          4.586166e-05 -4.427274e-05 -3.833598e-05 -5.376189e-05 -2.448164e-05 -3.359727e-05
          -3.035151e-05 4.284976e-06 -7.784754e-05 -1.708133e-04 -8.074893e-06 1.986385e-05
          1.307258e-05 2.208072e-05 -3.394645e-05 8.988553e-07 -3.787053e-05 -4.530628e-05
          -4.873206e-05 -7.425505e-05 -4.262410e-05 -2.372794e-05 6.751895e-06 3.347117e-05
          -5.872235e-05 -1.293332e-04 -1.430071e-04 -1.278875e-04 -8.973135e-05 -4.508576e-05
          -1.291558e-05 7.401891e-05 1.213837e-04 -1.856340e-04 3.846084e-05 4.673797e-05
          1.224122e-06 1.490373e-05 2.052611e-05 1.076123e-06 -2.254914e-05 -9.577051e-05
          7.036277e-05 1.310048e-04 1.560925e-04 1.256013e-04 9.286404e-05 3.879996e-05
          2.273112e-05 -1.518744e-04 -1.781335e-04 -2.151967e-04 -1.932310e-04 -2.028995e-04
          -2.104606e-04 -1.866927e-04 -2.537172e-04 -3.225343e-04 -1.206701e-04 -4.010180e-05
          -4.158622e-05 -3.517143e-05 -1.152895e-04 -1.876874e-04 -2.289775e-04 -2.356704e-04
          -2.331430e-04 -1.437094e-04 -9.700719e-05 -7.957633e-05 -5.430571e-05 -3.962971e-05
          -1.835114e-04 -2.971616e-04 -3.111694e-04 -2.982533e-04 -2.615314e-04 -2.116311e-04
          -1.734933e-04 -9.733785e-05 -4.532999e-05 -2.884794e-04 -8.380262e-05 -1.102181e-04
          -1.664565e-04 -1.586202e-04 -1.548470e-04 -1.722596e-04 -1.928775e-04 -2.515233e-04
          1.266605e-06 -3.657599e-05 -5.039795e-05 -3.095212e-05 -1.195991e-05 1.765942e-05
          -1.347065e-05 2.549122e-05 2.231918e-05 3.363707e-05 1.789221e-05 2.548672e-05
          3.927715e-05 3.049358e-05 7.736897e-05 1.275604e-04 1.546513e-05 -2.236353e-05
          -2.083064e-05 -2.547342e-05 1.471601e-05 3.203245e-05 5.645842e-05 6.067242e-05
          6.064700e-05 3.487703e-05 1.118148e-05 5.952468e-07 -1.538253e-05 -2.662326e-05
          4.724394e-05 1.058502e-04 1.146720e-04 1.062361e-04 8.439055e-05 5.811804e-05
          3.874676e-05 -1.100531e-05 -4.289336e-05 1.139150e-04 -2.191860e-05 -2.440114e-05
          2.718794e-06 -4.139816e-06 -7.013974e-06 4.079580e-06 1.721949e-05 5.740611e-05
          -1.209075e-04 -1.173036e-04 -1.235660e-04 -1.238990e-04 -1.180280e-04 -1.005135e-04
          4.048379e-05 2.390263e-04 3.027043e-04 3.478678e-04 3.572822e-04 3.665771e-04
          4.270174e-04 4.682171e-04 4.534248e-04 4.165831e-04 2.795436e-04 1.375251e-04
          1.248535e-04 1.290771e-04 2.004872e-04 4.651049e-04 4.820555e-04 4.820821e-04
          4.679669e-04 1.823375e-04 1.376564e-04 1.373859e-04 1.439248e-04 1.686919e-04
          3.209510e-04 4.468200e-04 4.513664e-04 4.530910e-04 4.477043e-04 4.252389e-04
          4.044450e-04 4.108565e-04 3.861717e-04 2.843200e-04 2.498168e-04 3.145104e-04
          3.472024e-04 3.582014e-04 3.616200e-04 3.614149e-04 3.597201e-04 3.450324e-04
          -1.482802e-04 -9.764121e-06 3.017682e-05 -3.770783e-05 -9.594141e-05 -1.748466e-04
          1.203322e-04 2.290751e-04 3.235427e-04 3.466031e-04 4.152617e-04 4.070470e-04
          4.767334e-04 5.877113e-04 4.052733e-04 1.759128e-04 3.471143e-04 2.480928e-04
          2.213070e-04 2.441384e-04 2.147281e-04 5.780054e-04 5.203474e-04 5.057487e-04
          4.833605e-04 1.157715e-04 1.280707e-04 1.650311e-04 2.320043e-04 3.116692e-04
          2.977535e-04 2.960440e-04 2.733584e-04 3.053087e-04 3.738254e-04 4.334142e-04
          4.710791e-04 6.527749e-04 7.216217e-04 2.956931e-06 4.066971e-04 5.019623e-04
          4.529938e-04 4.933738e-04 5.085705e-04 4.697909e-04 4.212958e-04 2.601191e-04
          -1.066824e-05 -1.271119e-04 -1.708938e-04 -1.123737e-04 -5.430925e-05 3.597869e-05
          -3.490973e-05 1.370967e-04 1.496362e-04 2.016117e-04 1.564497e-04 1.707684e-04
          1.608179e-04 1.004649e-04 2.372400e-04 3.875930e-04 5.268636e-05 -5.184563e-05
          -4.539308e-05 -5.902240e-05 6.393449e-05 1.020562e-04 1.734478e-04 1.861674e-04
          1.867355e-04 1.226523e-04 5.133512e-05 1.866873e-05 -3.127464e-05 -6.775581e-05
          1.501962e-04 3.216631e-04 3.476787e-04 3.222640e-04 2.561251e-04 1.747385e-04
          1.135400e-04 -3.722616e-05 -1.300338e-04 3.700387e-04 2.490521e-06 2.324107e-05
          1.123881e-04 9.196316e-05 8.281621e-05 1.161183e-04 1.557674e-04 2.715933e-04
          -4.244418e-05 2.135519e-04 3.010230e-04 1.730853e-04 5.143993e-05 -1.315725e-04
          1.582092e-04 -1.852344e-05 4.059506e-05 9.186917e-07 1.137832e-04 8.078384e-05
          1.002942e-04 2.342570e-04 -8.362455e-05 -4.492431e-04 1.276742e-04 2.012621e-04
          1.736502e-04 2.092426e-04 2.116354e-05 2.211556e-04 8.038097e-05 5.269952e-05
          3.635822e-05 -1.334311e-04 -2.748623e-05 4.317808e-05 1.581346e-04 2.634733e-04
          -4.359981e-05 -2.786644e-04 -3.297887e-04 -2.725169e-04 -1.323074e-04 2.308991e-05
          1.335144e-04 4.653481e-04 6.408623e-04 -5.331894e-04 2.981703e-04 3.587000e-04
          2.045647e-04 2.605078e-04 2.827860e-04 2.097374e-04 1.209899e-04 -1.578363e-04
          5.532139e-05 6.216624e-05 6.611305e-05 6.257554e-05 5.714529e-05 4.625035e-05
          1.284754e-05 -5.658173e-05 -6.699516e-05 -7.199837e-05 -6.943080e-05 -7.369193e-05
          -9.230577e-05 -1.003460e-04 -1.065902e-04 -1.093995e-04 -7.359232e-05 -5.205158e-05
          -5.142784e-05 -5.071612e-05 -6.754120e-05 -1.017223e-04 -1.091682e-04 -1.099745e-04
          -1.083086e-04 -7.110053e-05 -6.124505e-05 -5.904198e-05 -5.657239e-05 -5.697965e-05
          -8.776700e-05 -1.120881e-04 -1.137831e-04 -1.124519e-04 -1.066245e-04 -9.648612e-05
          -8.888023e-05 -8.200425e-05 -7.433025e-05 -9.005998e-05 -4.772520e-05 -5.249008e-05
          -6.329201e-05 -6.389874e-05 -6.422622e-05 -6.628135e-05 -6.877234e-05 -7.670131e-05
          5.124439e-05 7.425054e-05 8.147572e-05 7.008198e-05 5.840818e-05 3.904050e-05
          5.562078e-05 1.940250e-05 3.821587e-05 5.491387e-05 6.915133e-05 6.184250e-05
          4.100128e-05 4.037486e-05 9.274871e-06 -2.679548e-05 -5.802536e-06 -3.068855e-05
          -3.618918e-05 -3.172117e-05 -3.442740e-05 3.487744e-05 2.342384e-05 2.081015e-05
          1.649239e-05 -5.661208e-05 -5.620385e-05 -5.001998e-05 -3.830887e-05 -2.366327e-05
          -1.863504e-05 -1.182389e-05 -1.477421e-05 -9.225394e-06 4.122361e-06 1.788314e-05
          2.565940e-05 5.299841e-05 6.188449e-05 -5.183110e-05 5.520451e-05 8.830955e-05
          7.992657e-05 8.619892e-05 8.800289e-05 8.118174e-05 7.225429e-05 3.837109e-05
          -8.847610e-05 -8.143084e-05 -8.823830e-05 -9.008939e-05 -8.531744e-05 -7.014231e-05
          8.767838e-05 2.970032e-04 3.846801e-04 4.557794e-04 4.718799e-04 4.778968e-04
          5.248979e-04 5.608684e-04 5.376546e-04 4.879153e-04 3.076725e-04 1.153686e-04
          9.781816e-05 1.040410e-04 1.977595e-04 5.531012e-04 5.721340e-04 5.716563e-04
          5.524467e-04 1.671565e-04 1.083019e-04 1.085863e-04 1.187513e-04 1.533537e-04
          3.558841e-04 5.244325e-04 5.305931e-04 5.336571e-04 5.296698e-04 5.053111e-04
          4.805675e-04 4.895354e-04 4.567026e-04 3.186632e-04 3.203562e-04 4.225653e-04
          4.638132e-04 4.782855e-04 4.824616e-04 4.810273e-04 4.771681e-04 4.484511e-04
          -1.244185e-04 -1.397671e-04 -1.530696e-04 -1.443340e-04 -1.297397e-04 -9.918576e-05
          3.196396e-05 2.679773e-04 3.379002e-04 3.941318e-04 3.967850e-04 4.041258e-04
          4.379530e-04 4.532008e-04 4.584327e-04 4.467121e-04 2.719931e-04 1.303064e-04
          1.205600e-04 1.222772e-04 2.073940e-04 4.496335e-04 4.752144e-04 4.771291e-04
          4.644430e-04 1.991565e-04 1.474323e-04 1.415918e-04 1.394951e-04 1.555497e-04
          3.258803e-04 4.648760e-04 4.724864e-04 4.702822e-04 4.549364e-04 4.207903e-04
          3.911217e-04 3.740696e-04 3.389059e-04 3.325022e-04 2.606581e-04 3.343777e-04