<?xml version="1.0"?>
<VTKFile type="RectilinearGrid" version="0.1" byte_order="LittleEndian">
  <RectilinearGrid WholeExtent="0 47 0 47 0 47">
    <Piece Extent="0 47 0 47 0 47">
      <PointData Scalars="concentration">
        <DataArray type="Float32" Name="concentration" NumberOfComponents="1" format="ascii">
          2.614724e-03 2.622734e-03 2.644409e-03 2.657311e-03 2.623717e-03 2.478039e-03
          1.316272e-03 -9.853840e-04 -1.088431e-03 -8.075145e-04 -7.381972e-04 -7.234877e-04
          -5.669556e-04 -4.004526e-04 -3.252050e-04 -3.005081e-04 -1.334138e-03 -2.452361e-03
          -2.565679e-03 -2.548194e-03 -2.173571e-03 -4.873599e-04 -4.048675e-04 -4.082329e-04
          -5.006133e-04 -2.390019e-03 -2.656380e-03 -2.641438e-03 -2.587181e-03 -2.396882e-03
          -1.332333e-03 -3.935031e-04 -3.133898e-04 -3.106718e-04 -2.846692e-04 -2.250530e-04
          -2.169709e-04 -3.456159e-04 -6.483626e-04 -1.202927e-03 -9.494224e-04 -6.664364e-04
          -6.668213e-04 -6.643366e-04 -6.611238e-04 -6.670231e-04 -6.764131e-04 -8.317266e-04
          2.171288e-03 2.181549e-03 2.207555e-03 2.219894e-03 2.192829e-03 2.074145e-03
          1.012975e-03 -1.100863e-03 -1.296800e-03 -1.162674e-03 -1.122251e-03 -1.069897e-03
          -7.107512e-04 -4.272751e-04 -3.352666e-04 -2.957401e-04 -1.132748e-03 -2.053330e-03
          -2.149392e-03 -2.139121e-03 -1.853449e-03 -4.811856e-04 -4.032263e-04 -4.049775e-04
          -4.797889e-04 -2.009696e-03 -2.219963e-03 -2.205101e-03 -2.158278e-03 -1.999668e-03
          -1.140356e-03 -3.767565e-04 -3.087693e-04 -3.085198e-04 -2.894246e-04 -2.335831e-04
          -2.138264e-04 -3.226481e-04 -5.809527e-04 -1.107476e-03 -1.121151e-03 -1.038678e-03
          -1.074004e-03 -1.077540e-03 -1.072484e-03 -1.074672e-03 -1.078746e-03 -1.169160e-03
          1.256461e-03 1.468075e-03 1.561838e-03 1.472002e-03 1.363733e-03 1.157048e-03
          6.369140e-04 -1.024317e-03 -1.238317e-03 -1.317254e-03 -1.226795e-03 -1.160214e-03
          -5.797209e-04 -8.243584e-05 -2.354063e-04 -4.789454e-04 -5.481093e-04 -1.080575e-03
          -1.166881e-03 -1.138013e-03 -1.126564e-03 -9.997310e-05 -1.435535e-04 -1.648057e-04
          -2.244206e-04 -1.313466e-03 -1.356055e-03 -1.288634e-03 -1.166205e-03 -9.796229e-04
          -6.874162e-04 -3.924279e-04 -3.874538e-04 -3.450675e-04 -2.295231e-04 -7.174707e-05
          3.916964e-05 2.301162e-04 1.923231e-04 -1.165986e-03 -8.592320e-04 -9.628324e-04
          -1.145437e-03 -1.108966e-03 -1.084029e-03 -1.138512e-03 -1.205285e-03 -1.425991e-03
          6.454358e-04 4.819575e-04 4.434036e-04 5.401080e-04 6.227811e-04 7.309566e-04
          6.546026e-05 -8.255609e-04 -1.141317e-03 -1.268148e-03 -1.366527e-03 -1.223650e-03
          -5.270796e-04 -1.497134e-04 1.600605e-04 4.432962e-04 -2.942520e-04 -7.440183e-04
          -7.712361e-04 -7.991854e-04 -5.768359e-04 -1.175991e-04 4.231452e-05 6.348079e-05
          4.339172e-05 -4.793727e-04 -6.325236e-04 -6.713310e-04 -7.266478e-04 -7.265279e-04
          -1.654761e-04 3.132246e-04 3.783913e-04 3.351015e-04 2.333789e-04 1.402153e-04
          8.389917e-05 -1.827068e-04 -4.262188e-04 -1.969909e-05 -1.163148e-03 -1.487528e-03
          -1.448184e-03 -1.492820e-03 -1.498218e-03 -1.441702e-03 -1.373692e-03 -1.129529e-03
          5.781315e-04 7.477981e-04 8.238132e-04 7.550413e-04 6.810821e-04 5.547000e-04
          2.599180e-04 -8.849773e-04 -1.141553e-03 -1.336627e-03 -1.291423e-03 -1.180092e-03
          -3.932440e-04 1.994372e-04 1.023701e-04 -8.918627e-05 -9.619928e-05 -4.722035e-04
          -5.376093e-04 -5.200711e-04 -5.361014e-04 2.185499e-04 2.010980e-04 1.864460e-04
          1.432787e-04 -6.365034e-04 -6.568379e-04 -6.036444e-04 -5.083138e-04 -3.672757e-04
          -1.854358e-04 5.357100e-06 5.336008e-06 3.617150e-05 1.146963e-04 2.213702e-04
          3.083405e-04 4.721961e-04 4.501149e-04 -6.977436e-04 -8.225440e-04 -1.095306e-03
          -1.259439e-03 -1.231206e-03 -1.206448e-03 -1.244270e-03 -1.290809e-03 -1.401024e-03
          9.783843e-04 1.154922e-03 1.234234e-03 1.163838e-03 1.081573e-03 9.279826e-04
          4.890620e-04 -9.595187e-04 -1.200746e-03 -1.326888e-03 -1.263530e-03 -1.160666e-03
          -4.055890e-04 1.805270e-04 7.919964e-05 -1.235595e-04 -2.853346e-04 -8.386134e-04
          -9.221031e-04 -8.997221e-04 -8.540365e-04 1.811252e-04 1.709988e-04 1.548475e-04
          9.609400e-05 -9.983002e-04 -1.061202e-03 -1.004596e-03 -8.982391e-04 -7.245515e-04
          -3.751030e-04 -3.730726e-05 -2.644815e-05 6.791688e-06 9.333605e-05 2.109061e-04
          2.980116e-04 4.509602e-04 3.874933e-04 -8.617734e-04 -8.705496e-04 -1.057450e-03
          -1.215688e-03 -1.183949e-03 -1.158621e-03 -1.199910e-03 -1.251126e-03 -1.402550e-03
          1.602630e-03 1.396644e-03 1.345105e-03 1.466830e-03 1.557196e-03 1.641952e-03
          5.794106e-04 -9.661918e-04 -1.246181e-03 -1.189394e-03 -1.268546e-03 -1.143945e-03
          -5.600055e-04 -2.497109e-04 1.186155e-04 4.570678e-04 -7.748221e-04 -1.655692e-03
          -1.718635e-03 -1.742805e-03 -1.331084e-03 -2.607099e-04 -5.343746e-05 -2.961391e-05
          -8.252719e-05 -1.304555e-03 -1.582167e-03 -1.629300e-03 -1.685162e-03 -1.632907e-03
          -6.085270e-04 2.682366e-04 3.703013e-04 3.199094e-04 2.057931e-04 1.029011e-04
          2.070385e-05 -3.469050e-04 -7.261122e-04 -2.797210e-04 -1.306621e-03 -1.423556e-03
          -1.331593e-03 -1.380264e-03 -1.389854e-03 -1.325224e-03 -1.248545e-03 -1.043065e-03
          1.859987e-03 2.185272e-03 2.318193e-03 2.173852e-03 2.003313e-03 1.680099e-03
          1.070270e-03 -1.099263e-03 -1.246781e-03 -1.218063e-03 -1.050892e-03 -1.017335e-03
          -5.156446e-04 1.979314e-06 -2.911776e-04 -7.034424e-04 -7.840343e-04 -1.564386e-03
          -1.689666e-03 -1.638302e-03 -1.602272e-03 -5.259645e-05 -1.431763e-04 -1.781568e-04
          -2.690227e-04 -1.923861e-03 -1.991787e-03 -1.890986e-03 -1.705089e-03 -1.425080e-03
          -9.916464e-04 -5.599152e-04 -5.589933e-04 -4.892941e-04 -3.042624e-04 -6.784813e-05
          8.564575e-05 3.943367e-04 3.641767e-04 -1.616493e-03 -7.564981e-04 -6.766149e-04
          -9.064442e-04 -8.408746e-04 -8.063619e-04 -8.962585e-04 -1.006915e-03 -1.410841e-03
          1.804009e-03 1.771377e-03 1.779192e-03 1.812188e-03 1.812445e-03 1.750400e-03
          8.132330e-04 -9.556375e-04 -1.152242e-03 -1.054566e-03 -1.043142e-03 -9.745668e-04
          -5.654931e-04 -2.788597e-04 -1.400593e-04 -4.891616e-05 -8.951279e-04 -1.732327e-03
          -1.813963e-03 -1.811551e-03 -1.522825e-03 -3.163090e-04 -2.167094e-04 -2.130505e-04
          -2.776391e-04 -1.625662e-03 -1.832811e-03 -1.831627e-03 -1.808838e-03 -1.684060e-03
          -8.615013e-04 -1.379985e-04 -6.954202e-05 -7.936475e-05 -9.014851e-05 -7.480144e-05
          -7.913624e-05 -2.268874e-04 -4.867988e-04 -7.905096e-04 -1.042855e-03 -1.019884e-03
          -1.025560e-03 -1.036629e-03 -1.034064e-03 -1.022329e-03 -1.009702e-03 -1.028491e-03
          1.114310e-03 1.142960e-03 1.168269e-03 1.167763e-03 1.148460e-03 1.082591e-03
          4.955918e-04 -7.759782e-04 -9.620627e-04 -9.736260e-04 -9.573068e-04 -8.847948e-04
          -4.206711e-04 -8.655695e-05 -3.488619e-05 -3.654561e-05 -4.947951e-04 -1.049117e-03
          -1.111225e-03 -1.105603e-03 -9.555349e-04 -9.907177e-05 -4.835260e-05 -5.018404e-05
          -9.672032e-05 -1.035051e-03 -1.151929e-03 -1.136674e-03 -1.098429e-03 -9.926537e-04
          -4.999948e-04 -5.800098e-05 -2.092950e-05 -1.811859e-05 -3.481192e-06 3.309324e-05
          5.486777e-05 1.970104e-05 -1.274323e-04 -6.112387e-04 -8.123404e-04 -8.910676e-04
          -9.413788e-04 -9.400023e-04 -9.315017e-04 -9.349415e-04 -9.401927e-04 -9.751718e-04
          -5.961665e-06 3.409751e-05 5.507106e-05 4.358342e-05 3.475686e-05 2.709586e-05
          -4.984285e-05 -3.799256e-04 -5.346811e-04 -6.804609e-04 -6.895459e-04 -6.077767e-04
          -1.081536e-04 2.276391e-04 2.378045e-04 2.016094e-04 1.527732e-04 1.235679e-05
          -9.755075e-06 -9.508190e-06 -4.916647e-06 2.552549e-04 2.747522e-04 2.732719e-04
          2.593956e-04 -1.553733e-06 -1.651525e-05 -3.248981e-06 2.109018e-05 6.292751e-05
          1.506744e-04 2.361746e-04 2.400729e-04 2.444452e-04 2.522377e-04 2.656378e-04
          2.861867e-04 3.213357e-04 2.956447e-04 -7.538834e-05 -4.288657e-04 -6.486561e-04
          -7.060274e-04 -7.009076e-04 -6.905616e-04 -6.942360e-04 -6.991807e-04 -6.760639e-04
          -7.087697e-04 -7.038384e-04 -7.079109e-04 -7.082123e-04 -6.916366e-04 -6.345616e-04
          -3.224248e-04 1.871988e-04 1.625935e-04 4.616984e-05 2.278134e-05 7.770088e-05
          3.829626e-04 5.647409e-04 5.665098e-04 5.396508e-04 6.068108e-04 6.743894e-04
          6.805915e-04 6.770252e-04 6.595101e-04 6.004911e-04 6.163431e-04 6.183019e-04
          6.224446e-04 7.109966e-04 7.231768e-04 7.219861e-04 7.196384e-04 7.102194e-04
          6.495166e-04 5.917936e-04 5.826433e-04 5.814514e-04 5.650087e-04 5.299416e-04
          5.161478e-04 5.466725e-04 5.706364e-04 4.943248e-04 1.331496e-04 -2.091493e-05
          -1.858696e-05 -1.222090e-05 -5.841785e-06 -1.147502e-06 3.770659e-06 6.467412e-05
          -8.280696e-04 -8.517471e-04 -8.768276e-04 -8.685016e-04 -8.400683e-04 -7.619768e-04
          -2.733727e-04 6.637107e-04 8.044456e-04 8.278470e-04 8.170311e-04 8.166232e-04
          7.847501e-04 7.391738e-04 7.223320e-04 6.967148e-04 7.130976e-04 7.982790e-04
          8.136421e-04 8.125918e-04 8.391973e-04 7.529971e-04 7.657831e-04 7.688932e-04
          7.745054e-04 8.782942e-04 8.725052e-04 8.607525e-04 8.435514e-04 8.176600e-04
          7.881052e-04 7.454976e-04 7.358468e-04 7.323645e-04 7.052632e-04 6.422879e-04
          5.973087e-04 6.066525e-04 6.356599e-04 7.773409e-04 6.533426e-04 7.093454e-04
          7.795034e-04 7.897800e-04 7.908049e-04 7.984391e-04 8.063039e-04 8.417370e-04
          -7.300562e-04 -6.939679e-04 -7.004217e-04 -7.257027e-04 -7.327786e-04 -7.154122e-04
          -1.601534e-04 7.736026e-04 9.950686e-04 1.080122e-03 1.109816e-03 1.058663e-03
          7.870594e-04 6.199229e-04 5.042421e-04 3.888320e-04 5.919135e-04 7.497350e-04
          7.651434e-04 7.749915e-04 7.436969e-04 6.137693e-04 5.738016e-04 5.688885e-04
          5.749710e-04 7.282624e-04 7.598377e-04 7.641913e-04 7.717996e-04 7.613449e-04
          6.088526e-04 4.661752e-04 4.408866e-04 4.529474e-04 4.672531e-04 4.513422e-04
          4.339539e-04 5.238824e-04 6.128623e-04 5.655165e-04 8.850255e-04 1.067001e-03
          1.112369e-03 1.136050e-03 1.138606e-03 1.125151e-03 1.107777e-03 1.042136e-03
          -4.057603e-04 -4.973236e-04 -5.447105e-04 -5.084369e-04 -4.653209e-04 -3.874514e-04
          -1.088338e-04 7.115561e-04 9.232276e-04 1.083328e-03 1.068887e-03 9.982784e-04
          5.158189e-04 1.596958e-04 1.933275e-04 2.718308e-04 2.145394e-04 3.605266e-04
          3.919519e-04 3.858691e-04 4.336135e-04 1.423730e-04 1.555721e-04 1.630797e-04
          1.800459e-04 4.734158e-04 4.621641e-04 4.323419e-04 3.824107e-04 3.154627e-04
          2.862707e-04 2.378834e-04 2.386313e-04 2.234514e-04 1.788698e-04 1.070059e-04
          4.496243e-05 -3.825944e-05 -3.187542e-05 5.714072e-04 7.009441e-04 9.321788e-04
          1.049690e-03 1.041726e-03 1.029145e-03 1.048629e-03 1.071848e-03 1.112167e-03
          -3.969517e-04 -3.195584e-04 -3.064476e-04 -3.558506e-04 -3.968801e-04 -4.491683e-04
          -2.468388e-05 6.232700e-04 8.571115e-04 9.777853e-04 1.035622e-03 9.334611e-04
          4.056173e-04 1.000656e-04 -7.582027e-05 -2.263357e-04 1.764535e-04 4.504459e-04
          4.708813e-04 4.867944e-04 3.733440e-04 7.416103e-05 -1.703706e-05 -2.817438e-05
          -1.462458e-05 3.176825e-04 4.003659e-04 4.175003e-04 4.406560e-04 4.302858e-04
          1.142399e-04 -1.597807e-04 -1.963984e-04 -1.738276e-04 -1.218896e-04 -7.989090e-05
          -5.941784e-05 7.763597e-05 2.170315e-04 9.748669e-05 8.249108e-04 1.080461e-03
          1.082829e-03 1.107595e-03 1.107923e-03 1.078264e-03 1.042514e-03 9.003280e-04
          -7.978628e-04 -8.638004e-04 -8.978008e-04 -8.731393e-04 -8.352746e-04 -7.501157e-04
          -3.801318e-04 5.441987e-04 6.552616e-04 6.609450e-04 6.273907e-04 5.946343e-04
          3.356335e-04 1.218893e-04 1.479633e-04 2.117232e-04 3.895324e-04 7.237329e-04
          7.680228e-04 7.578655e-04 7.024024e-04 1.362660e-04 1.339878e-04 1.406157e-04
          1.725583e-04 7.867895e-04 8.385114e-04 8.153979e-04 7.693876e-04 6.830701e-04
          4.342714e-04 2.019327e-04 1.874354e-04 1.748058e-04 1.363941e-04 7.726593e-05
          3.877261e-05 2.396909e-06 6.345755e-05 5.766569e-04 5.021529e-04 5.293884e-04
          5.941041e-04 5.843844e-04 5.758008e-04 5.924532e-04 6.132209e-04 6.939095e-04
          -1.117730e-03 -1.143803e-03 -1.156827e-03 -1.143396e-03 -1.108207e-03 -1.008691e-03
          -6.135930e-04 1.682085e-04 8.874252e-05 -1.267118e-04 -1.853813e-04 -1.149585e-04
          2.394849e-04 4.257526e-04 4.687670e-04 4.997896e-04 7.271953e-04 1.024630e-03
          1.056496e-03 1.042901e-03 9.507720e-04 4.865825e-04 5.036393e-04 5.098957e-04
          5.369422e-04 1.073034e-03 1.136701e-03 1.125707e-03 1.099303e-03 1.037469e-03
          7.734824e-04 5.371562e-04 5.194917e-04 5.097510e-04 4.728925e-04 4.187423e-04
          4.022848e-04 4.131433e-04 4.731302e-04 6.331418e-04 4.630800e-05 -2.472757e-04
          -2.513350e-04 -2.576335e-04 -2.544734e-04 -2.390118e-04 -2.198607e-04 -7.878889e-05
          -1.185619e-03 -8.963016e-04 -7.990196e-04 -9.401713e-04 -1.050761e-03 -1.168006e-03
          -4.511680e-04 1.817294e-05 -4.633613e-05 -3.620566e-04 -2.916376e-04 -2.296711e-04
          3.323648e-04 7.997487e-04 4.723898e-04 5.936915e-05 9.476143e-04 1.281089e-03
          1.272743e-03 1.300795e-03 9.898713e-04 8.558302e-04 7.148906e-04 6.879560e-04
          6.906847e-04 9.322681e-04 1.114883e-03 1.191537e-03 1.309151e-03 1.386375e-03
          7.931632e-04 3.112636e-04 2.346055e-04 2.938841e-04 4.241975e-04 5.566567e-04
          6.768722e-04 1.091367e-03 1.348745e-03 -7.233798e-06 2.504443e-04 -5.234298e-05
          -2.576462e-04 -1.959684e-04 -1.626085e-04 -2.345084e-04 -3.215739e-04 -4.990302e-04
          -1.108357e-03 -1.208090e-03 -1.247193e-03 -1.194259e-03 -1.119463e-03 -9.573739e-04
          -6.405978e-04 1.636313e-04 5.269786e-05 -1.606096e-04 -2.537219e-04 -1.508234e-04
          3.319182e-04 5.659630e-04 7.111805e-04 8.409854e-04 8.011950e-04 9.732545e-04
          1.002835e-03 9.794503e-04 9.824374e-04 6.345867e-04 7.097131e-04 7.246817e-04
          7.473527e-04 1.146014e-03 1.150863e-03 1.119680e-03 1.064200e-03 9.892044e-04
          9.185676e-04 8.397396e-04 8.426452e-04 8.157305e-04 7.330150e-04 6.234447e-04
          5.677146e-04 4.777625e-04 4.605646e-04 8.776939e-04 -6.838064e-05 -4.016851e-04
          -3.556498e-04 -3.751202e-04 -3.756538e-04 -3.371698e-04 -2.907717e-04 -6.104930e-05
          -1.326681e-03 -1.329376e-03 -1.350135e-03 -1.351728e-03 -1.322443e-03 -1.221584e-03
          -5.097230e-04 7.648766e-04 8.870513e-04 8.193368e-04 7.984883e-04 8.261663e-04
          9.608582e-04 1.019889e-03 9.805959e-04 9.180430e-04 1.080604e-03 1.279061e-03
          1.302632e-03 1.300535e-03 1.275885e-03 1.057761e-03 1.063385e-03 1.065807e-03
          1.078740e-03 1.345535e-03 1.373016e-03 1.364964e-03 1.351859e-03 1.316479e-03
          1.160610e-03 1.008302e-03 9.855246e-04 9.852038e-04 9.586575e-04 8.884339e-04
          8.469654e-04 9.025653e-04 9.744890e-04 1.023222e-03 7.422071e-04 6.882999e-04
          7.423443e-04 7.583961e-04 7.641093e-04 7.694035e-04 7.741692e-04 8.338905e-04
          -1.503168e-03 -1.448338e-03 -1.460891e-03 -1.496259e-03 -1.494231e-03 -1.428683e-03
          -4.266665e-04 1.236740e-03 1.537311e-03 1.584907e-03 1.612189e-03 1.581324e-03
          1.429952e-03 1.334189e-03 1.172382e-03 9.866087e-04 1.281502e-03 1.511308e-03
          1.533690e-03 1.545529e-03 1.506372e-03 1.349054e-03 1.308271e-03 1.302825e-03
          1.310714e-03 1.515147e-03 1.557060e-03 1.561997e-03 1.573134e-03 1.558543e-03
          1.341948e-03 1.135250e-03 1.095124e-03 1.111517e-03 1.119346e-03 1.069828e-03
          1.032601e-03 1.179220e-03 1.312203e-03 1.167451e-03 1.356323e-03 1.515841e-03
          1.586054e-03 1.625416e-03 1.634113e-03 1.618551e-03 1.597047e-03 1.544008e-03
          -1.468607e-03 -1.740859e-03 -1.865325e-03 -1.737349e-03 -1.579718e-03 -1.279214e-03
          -6.405823e-04 1.263786e-03 1.488090e-03 1.583022e-03 1.465374e-03 1.476527e-03
          1.299076e-03 1.030893e-03 1.274909e-03 1.556828e-03 1.125045e-03 1.272202e-03
          1.330807e-03 1.297201e-03 1.493970e-03 1.063127e-03 1.201247e-03 1.231371e-03
          1.261180e-03 1.702445e-03 1.611840e-03 1.526479e-03 1.390111e-03 1.238879e-03
          1.403625e-03 1.487690e-03 1.512259e-03 1.455309e-03 1.283981e-03 1.035708e-03
          8.576515e-04 5.810910e-04 4.927361e-04 1.854052e-03 9.780054e-04 1.056213e-03
          1.322804e-03 1.290398e-03 1.270408e-03 1.348469e-03 1.440587e-03 1.745355e-03
          -1.464663e-03 -1.224382e-03 -1.163702e-03 -1.290346e-03 -1.379412e-03 -1.455554e-03
          -4.007509e-04 8.671660e-04 1.089577e-03 1.006427e-03 1.096598e-03 1.064965e-03
          1.054857e-03 1.134438e-03 7.733747e-04 3.603542e-04 1.180109e-03 1.564302e-03
          1.573865e-03 1.605436e-03 1.364546e-03 1.155464e-03 1.008481e-03 9.837623e-04
          9.905902e-04 1.290877e-03 1.447019e-03 1.504968e-03 1.596279e-03 1.641803e-03
          1.083325e-03 6.105831e-04 5.312330e-04 5.865659e-04 6.974440e-04 7.793223e-04
          8.448678e-04 1.226565e-03 1.498508e-03 5.233395e-04 1.172460e-03 1.222276e-03
          1.134435e-03 1.203228e-03 1.227534e-03 1.161126e-03 1.079097e-03 8.624124e-04
          -7.381039e-04 -7.538998e-04 -7.694440e-04 -7.657297e-04 -7.469567e-04 -6.895469e-04
          -3.122792e-04 4.377705e-04 5.161471e-04 4.888586e-04 4.726539e-04 4.682988e-04
          4.163685e-04 3.604967e-04 3.461759e-04 3.377695e-04 4.928079e-04 6.990065e-04
          7.234773e-04 7.196714e-04 6.774400e-04 3.786405e-04 3.729610e-04 3.752766e-04
          3.920930e-04 7.282045e-04 7.645745e-04 7.558988e-04 7.384165e-04 6.963860e-04
          5.264190e-04 3.688799e-04 3.533411e-04 3.506238e-04 3.331670e-04 2.953675e-04
          2.730990e-04 2.907643e-04 3.465344e-04 5.159573e-04 4.251601e-04 4.121484e-04
          4.454750e-04 4.485335e-04 4.478375e-04 4.531054e-04 4.590651e-04 5.002561e-04
          -3.371997e-05 -9.345715e-05 -1.171154e-04 -9.051689e-05 -6.556026e-05 -2.814328e-05
          -2.901924e-05 1.658738e-04 2.167064e-04 2.747818e-04 2.576346e-04 2.323700e-04
          3.828284e-05 -1.140505e-04 -6.409044e-05 1.231402e-05 -5.483612e-05 1.404035e-06
          1.619755e-05 9.534352e-06 3.554437e-05 -1.208691e-04 -1.050074e-04 -9.946906e-05
          -9.005451e-05 6.435832e-05 5.525213e-05 3.765085e-05 7.805791e-06 -2.911366e-05
          -2.381533e-05 -2.854315e-05 -2.236518e-05 -3.391544e-05 -6.181463e-05 -9.502979e-05
          -1.224954e-04 -1.912776e-04 -2.076573e-04 1.442380e-04 1.288665e-04 1.978964e-04
          2.467102e-04 2.352116e-04 2.273693e-04 2.415957e-04 2.591329e-04 3.009136e-04
          -1.405039e-04 -3.144090e-06 3.961370e-05 -3.229391e-05 -9.913458e-05 -1.966768e-04
          6.433720e-05 1.891705e-04 2.898977e-04 3.115058e-04 3.797630e-04 3.325830e-04
          1.722437e-04 1.335862e-04 -6.251235e-05 -2.714924e-04 1.096989e-04 2.278552e-04
          2.221888e-04 2.426313e-04 1.243263e-04 1.194246e-04 2.830058e-05 1.260010e-05
          9.620236e-06 3.806002e-05 1.106999e-04 1.471191e-04 2.054390e-04 2.487993e-04
          1.428709e-05 -1.752643e-04 -2.094683e-04 -1.768807e-04 -9.863323e-05 -1.646981e-05
          3.865374e-05 2.284348e-04 3.496738e-04 -2.062966e-04 3.931398e-04 5.021471e-04
          4.349047e-04 4.675644e-04 4.774833e-04 4.356978e-04 3.852367e-04 2.165858e-04
          7.266852e-05 -5.304938e-05 -1.011683e-04 -3.933057e-05 1.967110e-05 1.071773e-04
          1.924833e-05 1.989041e-04 2.460887e-04 3.421641e-04 3.015121e-04 2.967487e-04
          1.720493e-04 3.663554e-05 1.730115e-04 3.323310e-04 -2.407783e-05 -1.313433e-04
          -1.231047e-04 -1.365899e-04 -2.302140e-06 2.894075e-05 9.824130e-05 1.111446e-04
          1.119903e-04 4.851753e-05 -2.786630e-05 -6.336344e-05 -1.171232e-04 -1.573547e-04
          7.412403e-05 2.555616e-04 2.830910e-04 2.569000e-04 1.895683e-04 1.069395e-04
          4.092859e-05 -1.219241e-04 -2.183360e-04 3.516907e-04 7.749346e-05 1.606124e-04
          2.635109e-04 2.421744e-04 2.307573e-04 2.645581e-04 3.051104e-04 4.099973e-04
          4.230568e-04 5.592749e-04 6.034742e-04 5.362853e-04 4.653787e-04 3.424431e-04
          3.786164e-04 4.598080e-05 1.454602e-04 2.493324e-04 3.351849e-04 2.931623e-04
          1.778747e-04 1.821510e-04 2.671959e-06 -2.067482e-04 -1.132568e-04 -2.953809e-04
          -3.302931e-04 -3.049790e-04 -3.121400e-04 1.466604e-04 8.139867e-05 6.527151e-05
          3.705341e-05 -4.519330e-04 -4.557575e-04 -4.172272e-04 -3.463700e-04 -2.536027e-04
          -1.928239e-04 -1.252202e-04 -1.389629e-04 -1.060872e-04 -2.557746e-05 6.084423e-05
          1.094160e-04 2.665899e-04 3.085892e-04 -3.843174e-04 2.584124e-04 4.564778e-04
          4.027012e-04 4.385269e-04 4.498302e-04 4.076746e-04 3.557122e-04 1.499889e-04
          3.688504e-04 3.017326e-04 2.783051e-04 3.146860e-04 3.443636e-04 3.775897e-04
          1.811702e-04 -3.188740e-05 -2.955499e-05 5.039373e-05 3.558467e-05 4.580419e-05
          6.142199e-05 4.979411e-05 1.389128e-04 2.267039e-04 -1.377491e-04 -3.793587e-04
          -3.934301e-04 -3.985772e-04 -2.626269e-04 3.700674e-05 9.258294e-05 9.950416e-05
          8.466923e-05 -2.627404e-04 -3.489582e-04 -3.662184e-04 -3.868318e-04 -3.776329e-04
          -7.570049e-05 1.773645e-04 2.048739e-04 1.906441e-04 1.550029e-04 1.135937e-04
          7.624192e-05 -3.069252e-05 -1.324470e-04 7.157795e-05 -1.029947e-04 -3.723251e-05
          1.952225e-05 9.221016e-06 4.639081e-06 2.317106e-05 4.481769e-05 8.711042e-05
          -1.272964e-04 -6.547543e-05 -4.576814e-05 -7.347465e-05 -9.498039e-05 -1.192833e-04
          1.179189e-06 3.252416e-06 -6.178209e-06 -4.825926e-05 -2.790431e-05 -1.658930e-06
          1.990435e-04 3.547860e-04 2.916278e-04 1.944173e-04 2.403252e-04 1.626320e-04
          1.466209e-04 1.546366e-04 1.478049e-04 3.624370e-04 3.498165e-04 3.443023e-04
          3.318704e-04 1.170710e-04 1.157815e-04 1.326880e-04 1.639086e-04 2.050779e-04
          2.282656e-04 2.540261e-04 2.464029e-04 2.591131e-04 2.840504e-04 3.047983e-04
          3.217919e-04 4.003136e-04 4.184191e-04 4.095176e-05 4.842756e-05 8.526479e-06
          -2.355420e-05 -6.369846e-06 2.886783e-06 -1.172726e-05 -3.013670e-05 -7.649368e-05
          -3.196163e-04 -2.616513e-04 -2.438006e-04 -2.695631e-04 -2.849885e-04 -2.923617e-04
          -1.041553e-04 2.844050e-05 3.573950e-06 -7.709128e-05 -6.681694e-05 -2.724068e-05
          2.422731e-04 4.353127e-04 3.795696e-04 2.867419e-04 3.695017e-04 3.392388e-04
          3.282475e-04 3.340445e-04 3.121383e-04 4.537464e-04 4.445791e-04 4.400699e-04
          4.319041e-04 3.022056e-04 3.111078e-04 3.263991e-04 3.534514e-04 3.849765e-04
          3.657451e-04 3.535611e-04 3.430455e-04 3.540961e-04 3.728777e-04 3.842705e-04
          3.986166e-04 4.795538e-04 5.073466e-04 1.506838e-04 5.214722e-05 -4.077286e-05
          -7.403266e-05 -5.775996e-05 -4.776985e-05 -5.983386e-05 -7.509292e-05 -9.698982e-05
          -3.835437e-04 -4.209766e-04 -4.311129e-04 -4.104750e-04 -3.830017e-04 -3.252680e-04
          -2.778854e-04 -1.030544e-04 -2.020508e-04 -3.297639e-04 -3.735029e-04 -3.213267e-04
          -6.416428e-05 7.097783e-05 1.410889e-04 2.060660e-04 2.261557e-04 3.226300e-04
          3.356042e-04 3.242693e-04 3.009131e-04 1.043268e-04 1.330038e-04 1.390638e-04
          1.512440e-04 3.752885e-04 3.902840e-04 3.796016e-04 3.578079e-04 3.246766e-04
          2.579424e-04 1.969155e-04 1.978698e-04 1.864229e-04 1.554702e-04 1.214523e-04
          1.100154e-04 7.305428e-05 6.843131e-05 2.230557e-04 -2.125226e-04 -4.106830e-04
          -4.137833e-04 -4.257773e-04 -4.258932e-04 -4.102633e-04 -3.908837e-04 -2.860966e-04
          -3.623747e-04 -3.576060e-04 -3.469648e-04 -3.489217e-04 -3.471571e-04 -3.326217e-04
          -3.283772e-04 -3.026542e-04 -4.503734e-04 -6.385819e-04 -6.735988e-04 -6.333467e-04
          -4.157928e-04 -2.886907e-04 -2.624157e-04 -2.298115e-04 4.321200e-05 3.094691e-04
          3.316733e-04 3.222781e-04 1.910221e-04 -2.513184e-04 -2.642180e-04 -2.628330e-04
          -2.384419e-04 2.614977e-04 3.425510e-04 3.443618e-04 3.358030e-04 2.942241e-04
          8.056165e-06 -2.325645e-04 -2.469061e-04 -2.498768e-04 -2.521497e-04 -2.404166e-04
          -2.136791e-04 -1.937833e-04 -1.373867e-04 -9.014762e-05 -3.695130e-04 -6.307997e-04
          -6.917696e-04 -7.037692e-04 -7.029709e-04 -6.997445e-04 -6.941536e-04 -6.190420e-04
          -4.860211e-05 8.908649e-05 1.487249e-04 8.025641e-05 1.097052e-05 -9.608427e-05
          -1.002888e-04 -4.431536e-04 -5.660469e-04 -7.355229e-04 -7.027752e-04 -6.964615e-04
          -5.590374e-04 -4.129196e-04 -5.488690e-04 -6.944258e-04 -1.630451e-04 9.385325e-05
          9.666300e-05 1.070918e-04 -1.117253e-04 -3.960601e-04 -4.863594e-04 -5.002923e-04
          -4.877249e-04 -1.442863e-04 -1.629780e-05 2.365735e-05 7.766887e-05 9.897463e-05
          -3.063724e-04 -6.309179e-04 -6.666782e-04 -6.392734e-04 -5.612392e-04 -4.518567e-04
          -3.597840e-04 -1.807712e-04 -4.873830e-05 -6.061716e-04 -3.278128e-04 -5.094033e-04
          -6.567307e-04 -6.425701e-04 -6.322167e-04 -6.690556e-04 -7.117467e-04 -8.054891e-04
          7.346093e-04 6.067083e-04 5.722263e-04 6.360352e-04 6.798804e-04 7.141580e-04
          2.086068e-04 -3.290406e-04 -3.930781e-04 -3.096630e-04 -3.503005e-04 -3.651975e-04
          -5.425945e-04 -7.023326e-04 -5.320628e-04 -3.177270e-04 -6.705210e-04 -7.856934e-04
          -7.811110e-04 -7.967477e-04 -6.948754e-04 -7.218577e-04 -6.616347e-04 -6.494697e-04
          -6.460233e-04 -6.595175e-04 -7.219423e-04 -7.536474e-04 -8.060075e-04 -8.450412e-04
          -6.316070e-04 -4.539770e-04 -4.180806e-04 -4.460587e-04 -4.998597e-04 -5.386833e-04
          -5.728613e-04 -7.673415e-04 -8.845499e-04 -2.815968e-04 -4.579920e-04 -4.154524e-04
          -3.600977e-04 -3.963264e-04 -4.120131e-04 -3.793527e-04 -3.387367e-04 -2.427778e-04
          1.146956e-03 1.380934e-03 1.469338e-03 1.353093e-03 1.218031e-03 9.650989e-04
          7.237821e-04 -3.489945e-04 -2.759703e-04 -1.335151e-04 9.458191e-06 -7.507102e-05
          -3.423053e-04 -3.744804e-04 -6.601649e-04 -9.724979e-04 -7.110396e-04 -9.323973e-04
          -9.862523e-04 -9.459294e-04 -1.024882e-03 -4.398843e-04 -5.698968e-04 -5.983898e-04
          -6.364007e-04 -1.263312e-03 -1.231687e-03 -1.162250e-03 -1.042717e-03 -8.977212e-04
          -9.079811e-04 -8.807586e-04 -9.037813e-04 -8.486409e-04 -6.976362e-04 -5.097455e-04
          -3.946349e-04 -1.406123e-04 -6.009285e-05 -1.181398e-03 9.812022e-06 2.883812e-04
          1.481455e-04 1.955398e-04 2.106881e-04 1.367806e-04 4.730559e-05 -3.049209e-04
          1.100801e-03 1.092244e-03 1.101274e-03 1.113295e-03 1.104842e-03 1.051305e-03
          4.962296e-04 -5.566973e-04 -6.560612e-04 -5.845727e-04 -5.698298e-04 -5.485445e-04
          -4.081884e-04 -2.980772e-04 -2.375415e-04 -1.955652e-04 -6.161852e-04 -1.051230e-03
          -1.094930e-03 -1.091798e-03 -9.511781e-04 -3.257003e-04 -2.842574e-04 -2.838973e-04
          -3.178326e-04 -1.020447e-03 -1.123074e-03 -1.119337e-03 -1.103167e-03 -1.034185e-03
          -6.180797e-04 -2.491076e-04 -2.138990e-04 -2.167373e-04 -2.127365e-04 -1.893313e-04
          -1.825614e-04 -2.536919e-04 -3.849903e-04 -5.627880e-04 -5.785234e-04 -5.352825e-04
          -5.471720e-04 -5.530037e-04 -5.525156e-04 -5.504071e-04 -5.482027e-04 -5.809625e-04
          9.742710e-05 1.123640e-04 1.288870e-04 1.290569e-04 1.278545e-04 1.252647e-04
          -6.389171e-05 -5.065605e-04 -6.975593e-04 -8.557378e-04 -8.783328e-04 -7.997411e-04
          -3.393135e-04 -3.991407e-05 6.564973e-06 2.213331e-05 -2.231623e-05 -1.111344e-04
          -1.255937e-04 -1.302629e-04 -1.399418e-04 -1.143765e-05 1.271361e-05 1.370610e-05
          7.355354e-06 -1.170460e-04 -1.225196e-04 -1.153071e-04 -1.040362e-04 -8.193785e-05
          -3.021153e-05 2.446270e-05 3.163637e-05 3.001069e-05 2.854550e-05 4.023771e-05
          6.133220e-05 6.152860e-05 2.902482e-05 -1.886386e-04 -5.873664e-04 -8.370768e-04
          -8.962848e-04 -9.016023e-04 -8.951832e-04 -8.925670e-04 -8.887447e-04 -8.363544e-04
          -7.430753e-04 -7.494298e-04 -7.478945e-04 -7.434954e-04 -7.261426e-04 -6.704116e-04
          -4.820649e-04 -1.179007e-04 -2.515619e-04 -4.727755e-04 -5.212215e-04 -4.570379e-04
          -1.171885e-04 7.549473e-05 1.116719e-04 1.408125e-04 3.944550e-04 6.696866e-04
          6.951460e-04 6.832497e-04 5.679403e-04 1.281423e-04 1.313898e-04 1.351234e-04
          1.601571e-04 6.660947e-04 7.393499e-04 7.362685e-04 7.211970e-04 6.726570e-04
          3.979231e-04 1.610661e-04 1.450420e-04 1.391461e-04 1.206266e-04 1.017958e-04
          1.101171e-04 1.296943e-04 1.868906e-04 2.540328e-04 -2.183742e-04 -5.244470e-04
          -5.649732e-04 -5.739250e-04 -5.709790e-04 -5.620918e-04 -5.500959e-04 -4.384589e-04
          -1.114264e-03 -1.124504e-03 -1.128798e-03 -1.122599e-03 -1.095130e-03 -1.007756e-03
          -6.401064e-04 5.011840e-05 -6.854702e-05 -3.245684e-04 -3.834273e-04 -3.039968e-04
          1.132998e-04 3.458903e-04 3.808102e-04 4.008517e-04 6.932045e-04 1.022472e-03
          1.054450e-03 1.040641e-03 9.178931e-04 4.123861e-04 4.211625e-04 4.261998e-04
          4.552521e-04 1.041631e-03 1.122338e-03 1.116211e-03 1.096205e-03 1.036573e-03
          7.205397e-04 4.434780e-04 4.221262e-04 4.149588e-04 3.864017e-04 3.464835e-04