<?xml version="1.0"?>
<VTKFile type="RectilinearGrid" version="0.1" byte_order="LittleEndian">
  <RectilinearGrid WholeExtent="0 47 0 47 0 47">
    <Piece Extent="0 47 0 47 0 47">
      <PointData Scalars="concentration">
        <DataArray type="Float32" Name="concentration" NumberOfComponents="1" format="ascii">
          6.759575e-05 9.311472e-05 1.053096e-04 9.379472e-05 8.073162e-05 5.862310e-05
          1.505431e-05 -1.377749e-04 -1.754108e-04 -2.086772e-04 -2.025069e-04 -1.942398e-04
          -1.264102e-04 -7.059694e-05 -8.880301e-05 -1.133422e-04 -5.762737e-05 -5.579536e-05
          -6.011273e-05 -5.798111e-05 -8.413137e-05 -6.783511e-05 -7.872221e-05 -8.104873e-05
          -8.241392e-05 -9.453094e-05 -8.165197e-05 -7.356593e-05 -6.155606e-05 -5.010716e-05
          -8.186860e-05 -1.037617e-04 -1.069460e-04 -1.022140e-04 -8.817943e-05 -6.734132e-05
          -5.014764e-05 -2.216984e-05 -1.107004e-05 -1.445312e-04 -1.229904e-04 -1.650491e-04
          -1.943082e-04 -1.918872e-04 -1.893584e-04 -1.958418e-04 -2.032040e-04 -2.199647e-04
          -1.459271e-04 -1.202878e-04 -1.125966e-04 -1.230878e-04 -1.285306e-04 -1.280084e-04
          -4.168516e-05 1.007155e-05 -5.746775e-06 -4.525014e-05 -4.137294e-05 -1.600821e-05
          1.486085e-04 2.631490e-04 2.421628e-04 1.989353e-04 2.027569e-04 1.556939e-04
          1.474027e-04 1.501835e-04 1.538054e-04 2.728475e-04 2.746322e-04 2.730026e-04
          2.664319e-04 1.486225e-04 1.432321e-04 1.501695e-04 1.634470e-04 1.827725e-04
          2.083869e-04 2.320639e-04 2.293620e-04 2.340132e-04 2.404334e-04 2.417617e-04
          2.454849e-04 2.798114e-04 2.834462e-04 9.902250e-05 1.400353e-05 -3.527082e-05
          -4.796205e-05 -3.985690e-05 -3.453761e-05 -3.924594e-05 -4.539197e-05 -5.189365e-05
          -2.856906e-04 -6.746683e-05 5.166130e-06 -1.010620e-04 -1.947102e-04 -3.218705e-04
          3.011684e-05 2.501635e-05 4.901140e-05 -3.834894e-05 4.644346e-05 5.745324e-05
          2.948373e-04 5.449579e-04 2.868557e-04 -3.536950e-05 4.014187e-04 4.097281e-04
          3.808223e-04 4.096183e-04 2.737597e-04 5.507016e-04 4.510513e-04 4.288958e-04
          4.097818e-04 1.600442e-04 2.331630e-04 2.927976e-04 3.923732e-04 4.910097e-04
          2.873390e-04 1.346999e-04 9.274622e-05 1.401724e-04 2.486082e-04 3.601201e-04
          4.437890e-04 7.311001e-04 8.674088e-04 -2.164536e-04 2.566592e-04 2.279693e-04
          1.007370e-04 1.520953e-04 1.754180e-04 1.167601e-04 4.484357e-05 -1.607516e-04
          -1.979453e-04 -3.669098e-04 -4.271634e-04 -3.403626e-04 -2.511382e-04 -1.042453e-04
          -1.916668e-04 7.477350e-05 2.160663e-05 8.229679e-06 -7.490476e-05 -2.114105e-05
          1.466557e-04 1.693722e-04 3.878998e-04 6.176191e-04 1.842757e-04 8.456620e-05
          9.778240e-05 7.367052e-05 2.223680e-04 1.914636e-04 3.019660e-04 3.215373e-04
          3.274018e-04 3.384736e-04 2.517441e-04 2.044828e-04 1.299457e-04 6.855593e-05
          3.271330e-04 5.278882e-04 5.630977e-04 5.241215e-04 4.219775e-04 2.997910e-04
          2.162395e-04 1.465267e-06 -1.258666e-04 5.780478e-04 -1.643555e-04 -2.633787e-04
          -1.547227e-04 -1.878258e-04 -1.989304e-04 -1.474620e-04 -8.576697e-05 1.234770e-04
          -1.358404e-04 2.031648e-05 7.637463e-05 -2.124744e-07 -7.121541e-05 -1.726240e-04
          4.864622e-06 -1.107496e-04 -1.275863e-04 -2.140158e-04 -1.573856e-04 -1.536569e-04
          -9.479705e-06 1.528455e-04 -2.589251e-05 -2.401750e-04 1.427790e-04 2.175406e-04
          2.026176e-04 2.214436e-04 8.751037e-05 1.584273e-04 7.804226e-05 6.192042e-05
          5.498766e-05 1.392076e-05 8.891601e-05 1.322961e-04 2.013109e-04 2.607491e-04
          3.892446e-05 -1.328110e-04 -1.652223e-04 -1.318083e-04 -5.039680e-05 4.209980e-05
          1.135063e-04 3.177244e-04 4.279436e-04 -3.076117e-04 5.108175e-05 -3.519575e-06
          -1.127779e-04 -8.120124e-05 -6.609595e-05 -1.084192e-04 -1.596199e-04 -3.011674e-04
          2.358566e-05 1.820948e-04 2.429111e-04 1.644289e-04 8.660075e-05 -3.340311e-05
          4.323016e-05 -2.391934e-04 -2.784942e-04 -3.666935e-04 -3.083915e-04 -3.156887e-04
          -2.321412e-04 -1.052519e-04 -2.830832e-04 -4.853026e-04 -5.486710e-05 5.990628e-05
          4.779746e-05 6.619167e-05 -9.419006e-05 -1.039239e-04 -1.948001e-04 -2.116495e-04
          -2.145202e-04 -1.715028e-04 -8.059807e-05 -3.557726e-05 3.353571e-05 8.766745e-05
          -1.836327e-04 -3.944990e-04 -4.277483e-04 -3.939067e-04 -3.055697e-04 -1.964991e-04
          -1.130305e-04 8.935613e-05 2.068657e-04 -5.033889e-04 -6.918662e-05 -1.270431e-04
          -2.523976e-04 -2.249989e-04 -2.116883e-04 -2.558490e-04 -3.085483e-04 -4.579928e-04
          1.201711e-04 -1.002518e-04 -1.707930e-04 -6.006252e-05 4.208458e-05 1.920710e-04
          -1.484778e-04 -1.524137e-04 -2.544200e-04 -2.560327e-04 -3.593816e-04 -3.237895e-04
          -3.007787e-04 -3.906284e-04 -1.035717e-04 2.285731e-04 -2.326679e-04 -2.639478e-04
          -2.384516e-04 -2.708823e-04 -1.338878e-04 -3.753273e-04 -2.562761e-04 -2.321651e-04
          -2.143268e-04 7.562835e-06 -7.006642e-05 -1.297056e-04 -2.294958e-04 -3.254463e-04
          -1.017279e-04 6.904759e-05 1.132842e-04 6.280802e-05 -5.592927e-05 -1.795547e-04
          -2.640581e-04 -5.542958e-04 -7.034438e-04 3.152024e-04 -4.404595e-04 -5.483544e-04
          -4.355946e-04 -4.888548e-04 -5.086598e-04 -4.450910e-04 -3.672531e-04 -1.154215e-04
          -1.014706e-04 2.201313e-04 3.336024e-04 1.739840e-04 2.269694e-05 -2.026018e-04
          1.325605e-04 -1.473838e-04 -1.266530e-04 -2.314096e-04 -1.001254e-04 -1.219383e-04
          1.144602e-05 2.466412e-04 -1.375660e-04 -5.856138e-04 1.687633e-04 2.885044e-04
          2.554481e-04 2.973585e-04 4.123387e-05 2.411504e-04 6.796916e-05 3.378878e-05
          1.618483e-05 -1.362224e-04 7.473271e-06 9.683801e-05 2.405145e-04 3.685058e-04
          -5.066596e-05 -3.726993e-04 -4.375726e-04 -3.669617e-04 -1.932266e-04 3.444632e-06
          1.482398e-04 5.649435e-04 7.872697e-04 -7.020114e-04 2.233028e-04 2.173450e-04
          6.784659e-06 7.385201e-05 1.029318e-04 1.270468e-05 -9.633430e-05 -4.228105e-04
          -1.056610e-04 -1.369698e-04 -1.480062e-04 -1.308373e-04 -1.110266e-04 -7.467101e-05
          -6.977628e-05 1.285121e-06 -2.597819e-05 -5.201043e-05 -7.217186e-05 -4.641657e-05
          7.389904e-05 1.335450e-04 1.810814e-04 2.222212e-04 1.206358e-04 8.032560e-05
          8.035589e-05 7.524332e-05 1.104647e-04 1.440411e-04 1.722822e-04 1.765626e-04
          1.757338e-04 1.387718e-04 1.166634e-04 1.080011e-04 9.497275e-05 8.705072e-05
          1.568801e-04 2.126128e-04 2.202358e-04 2.122975e-04 1.896574e-04 1.607184e-04
          1.427852e-04 1.033446e-04 7.342318e-05 1.709972e-04 -5.939353e-05 -1.140719e-04
          -9.503397e-05 -1.004868e-04 -1.009874e-04 -9.005945e-05 -7.697920e-05 -2.534432e-05
          -1.704304e-04 -1.412961e-04 -1.329443e-04 -1.452884e-04 -1.513907e-04 -1.508627e-04
          -4.434689e-05 3.101306e-05 2.014538e-05 -1.900708e-05 -1.357198e-05 1.278821e-05
          1.859247e-04 3.072639e-04 2.810741e-04 2.302822e-04 2.350523e-04 1.825213e-04
          1.733885e-04 1.768116e-04 1.819213e-04 3.172698e-04 3.184832e-04 3.165326e-04
          3.090312e-04 1.746948e-04 1.682894e-04 1.760469e-04 1.911371e-04 2.129445e-04
          2.420686e-04 2.686323e-04 2.652720e-04 2.707237e-04 2.782413e-04 2.793091e-04
          2.828479e-04 3.224227e-04 3.275686e-04 1.214496e-04 3.884659e-05 -8.079708e-06
          -2.049948e-05 -1.087518e-05 -4.903362e-06 -1.044841e-05 -1.771232e-05 -2.754822e-05
          -1.665759e-04 -1.293984e-04 -1.185486e-04 -1.344426e-04 -1.434823e-04 -1.472326e-04
          -3.218863e-05 2.949894e-05 1.873346e-05 -2.168648e-05 -1.273344e-05 1.644402e-05
          2.130925e-04 3.535305e-04 3.191805e-04 2.555660e-04 2.570689e-04 1.848502e-04
          1.727684e-04 1.774401e-04 1.854805e-04 3.635190e-04 3.636463e-04 3.609560e-04
          3.510254e-04 1.720481e-04 1.629194e-04 1.729435e-04 1.924911e-04 2.212549e-04
          2.629432e-04 3.011127e-04 2.973682e-04 3.045361e-04 3.154738e-04 3.195201e-04
          3.249954e-04 3.737555e-04 3.788124e-04 1.202561e-04 4.437503e-05 -2.560458e-06
          -1.839527e-05 -6.444361e-06 7.411604e-07 -6.753205e-06 -1.656155e-05 -3.429708e-05
          4.056680e-05 4.505124e-05 4.847418e-05 4.825529e-05 4.822729e-05 4.780122e-05
          7.628820e-06 -9.852565e-05 -1.354577e-04 -1.624668e-04 -1.653009e-04 -1.460388e-04
          -3.086960e-05 4.518432e-05 5.438857e-05 5.311946e-05 1.321142e-05 -3.931763e-05
          -4.568337e-05 -4.591056e-05 -3.443905e-05 5.020326e-05 5.866093e-05 5.891807e-05
          5.445498e-05 -3.464458e-05 -4.500513e-05 -4.293283e-05 -3.862024e-05 -2.791855e-05
          1.649471e-05 5.658786e-05 5.975795e-05 5.971346e-05 5.921731e-05 6.006822e-05
          6.250442e-05 6.228494e-05 4.804106e-05 -2.352549e-05 -1.146691e-04 -1.600202e-04
          -1.696608e-04 -1.695486e-04 -1.674937e-04 -1.671290e-04 -1.666960e-04 -1.588759e-04
          2.499153e-04 2.358852e-04 2.365095e-04 2.446339e-04 2.462499e-04 2.376735e-04
          5.989220e-05 -2.173699e-04 -2.717322e-04 -2.823962e-04 -2.897710e-04 -2.858813e-04
          -2.719430e-04 -2.660000e-04 -2.329661e-04 -1.924043e-04 -2.348280e-04 -2.562376e-04
          -2.576147e-04 -2.606394e-04 -2.583626e-04 -2.678811e-04 -2.607770e-04 -2.592368e-04
          -2.585417e-04 -2.549149e-04 -2.588422e-04 -2.608825e-04 -2.657552e-04 -2.684798e-04
          -2.453654e-04 -2.224837e-04 -2.156993e-04 -2.195945e-04 -2.230675e-04 -2.158910e-04
          -2.101487e-04 -2.404524e-04 -2.619880e-04 -2.031615e-04 -2.431565e-04 -2.751050e-04
          -2.863050e-04 -2.949256e-04 -2.971021e-04 -2.932705e-04 -2.878830e-04 -2.725822e-04
          2.542995e-04 3.067570e-04 3.293939e-04 3.040190e-04 2.735942e-04 2.160028e-04
          1.181107e-04 -1.959413e-04 -2.229222e-04 -2.310102e-04 -2.065953e-04 -2.157831e-04
          -2.218276e-04 -1.964041e-04 -2.492661e-04 -3.062057e-04 -2.065032e-04 -2.162655e-04
          -2.252642e-04 -2.185168e-04 -2.601676e-04 -2.042397e-04 -2.344834e-04 -2.403145e-04
          -2.446536e-04 -3.010201e-04 -2.800758e-04 -2.638947e-04 -2.386368e-04 -2.127387e-04
          -2.607333e-04 -2.918587e-04 -2.981301e-04 -2.867916e-04 -2.532462e-04 -2.058300e-04
          -1.726841e-04 -1.168366e-04 -9.356601e-05 -3.371876e-04 -1.331385e-04 -1.302583e-04
          -1.777597e-04 -1.710779e-04 -1.676642e-04 -1.832946e-04 -2.016033e-04 -2.643777e-04
          1.884673e-04 1.168609e-04 9.292942e-05 1.296097e-04 1.616734e-04 2.029533e-04
          4.865931e-05 -4.427261e-05 -6.113557e-05 -2.484042e-05 -5.089158e-05 -4.356405e-05
          -5.487194e-05 -9.182877e-05 7.516128e-07 1.045760e-04 -1.268756e-04 -2.213832e-04
          -2.208636e-04 -2.295100e-04 -1.503691e-04 -9.516171e-05 -5.100676e-05 -4.328361e-05
          -4.478855e-05 -1.227997e-04 -1.708290e-04 -1.897480e-04 -2.187803e-04 -2.360370e-04
          -7.838292e-05 5.022759e-05 6.983870e-05 5.402231e-05 1.650550e-05 -2.335164e-05
          -5.459563e-05 -1.565083e-04 -2.254487e-04 7.365891e-05 -1.277601e-04 -1.162060e-04
          -7.082787e-05 -8.626113e-05 -9.250089e-05 -7.255379e-05 -4.837354e-05 1.735061e-05
          9.968010e-05 1.975169e-04 2.302712e-04 1.823559e-04 1.358782e-04 6.187786e-05
          1.374716e-04 -1.099737e-05 1.932206e-05 2.898805e-05 7.724185e-05 6.631386e-05
          8.793456e-05 1.515313e-04 3.211663e-05 -1.115324e-04 2.793531e-05 -2.793694e-05
          -4.634750e-05 -3.137763e-05 -6.948926e-05 1.412383e-04 9.504488e-05 8.453764e-05
          7.101796e-05 -1.429516e-04 -1.250489e-04 -9.759588e-05 -5.026571e-05 3.893025e-06
          -2.920420e-05 -4.652342e-05 -6.090511e-05 -3.871552e-05 1.463461e-05 7.248452e-05
          1.107029e-04 2.306563e-04 2.768696e-04 -2.124042e-04 1.134260e-04 1.655301e-04
          1.136862e-04 1.369326e-04 1.461850e-04 1.180436e-04 8.362566e-05 -3.305090e-05
          1.388830e-04 8.348424e-05 6.467507e-05 9.345823e-05 1.195731e-04 1.543859e-04
          4.180206e-05 -2.715145e-05 -4.093144e-05 -1.346164e-05 -3.373870e-05 -2.295153e-05
          -1.615814e-06 -1.087539e-05 6.246659e-05 1.402218e-04 -6.414060e-05 -1.631403e-04
          -1.652160e-04 -1.716604e-04 -9.959649e-05 -1.267750e-05 2.571974e-05 3.190875e-05
          2.841473e-05 -7.938840e-05 -1.239419e-04 -1.385424e-04 -1.599699e-04 -1.690830e-04
          -2.053207e-05 1.014808e-04 1.180018e-04 1.056406e-04 7.522362e-05 4.124698e-05
          1.473152e-05 -6.493174e-05 -1.245244e-04 8.713201e-05 -9.540812e-05 -8.918571e-05
          -5.167795e-05 -6.268684e-05 -6.680739e-05 -5.094849e-05 -3.188613e-05 2.042955e-05
          1.279248e-04 8.883293e-05 7.859252e-05 9.972484e-05 1.182602e-04 1.419529e-04
          1.295806e-05 -1.293704e-04 -1.781241e-04 -1.895910e-04 -2.094854e-04 -1.898593e-04
          -1.066638e-04 -7.010868e-05 -6.687268e-06 5.772318e-05 -8.212680e-05 -1.504026e-04
          -1.525625e-04 -1.585119e-04 -1.161647e-04 -6.632572e-05 -3.618049e-05 -3.140973e-05
          -3.316828e-05 -9.496704e-05 -1.230152e-04 -1.325594e-04 -1.473920e-04 -1.539975e-04
          -5.606157e-05 2.605731e-05 3.873011e-05 2.905415e-05 6.972764e-06 -1.375973e-05
          -2.743427e-05 -8.685008e-05 -1.326683e-04 1.901200e-06 -1.943143e-04 -2.388217e-04
          -2.246317e-04 -2.350567e-04 -2.374546e-04 -2.252304e-04 -2.102467e-04 -1.609428e-04
          9.028226e-05 3.602350e-04 4.586224e-04 3.253909e-04 1.958627e-04 -4.645117e-06
          1.737614e-04 -2.506553e-04 -2.611052e-04 -3.496954e-04 -2.387412e-04 -2.542661e-04
          -1.228261e-04 9.014880e-05 -2.224775e-04 -5.884352e-04 1.037496e-05 7.153388e-05
          3.937002e-05 7.441415e-05 -1.334837e-04 8.262288e-05 -6.006678e-05 -8.871318e-05
          -1.061764e-04 -2.897503e-04 -1.760043e-04 -9.980064e-05 2.292465e-05 1.370382e-04
          -1.817284e-04 -4.209725e-04 -4.714173e-04 -4.125432e-04 -2.645561e-04 -9.141888e-05
          3.545842e-05 3.761291e-04 5.486198e-04 -7.208679e-04 5.591087e-05 4.167923e-05
          -1.441433e-04 -9.038432e-05 -6.614270e-05 -1.418712e-04 -2.331829e-04 -5.098804e-04
          1.771616e-04 5.815414e-05 2.217816e-05 8.286952e-05 1.374294e-04 2.131192e-04
          -3.846450e-05 -1.727014e-04 -2.511783e-04 -2.566779e-04 -3.127824e-04 -2.864012e-04
          -2.302118e-04 -2.487177e-04 -8.454340e-05 1.006711e-04 -1.895181e-04 -2.514246e-04
          -2.424713e-04 -2.600608e-04 -1.742674e-04 -2.411210e-04 -1.715184e-04 -1.582295e-04
          -1.520235e-04 -1.026395e-04 -1.542489e-04 -1.855356e-04 -2.372178e-04 -2.815608e-04
          -1.198502e-04 9.191257e-06 3.681692e-05 9.093696e-06 -5.478380e-05 -1.183299e-04
          -1.616797e-04 -3.254001e-04 -4.203513e-04 1.005448e-04 -3.361105e-04 -4.083773e-04
          -3.530291e-04 -3.830588e-04 -3.932600e-04 -3.585005e-04 -3.158302e-04 -1.788862e-04
          2.208531e-04 2.060452e-04 2.070022e-04 2.137105e-04 2.136618e-04 2.021667e-04
          3.346491e-05 -2.033890e-04 -2.502395e-04 -2.602359e-04 -2.678705e-04 -2.756738e-04
          -3.315313e-04 -3.716382e-04 -3.441055e-04 -2.993672e-04 -2.778825e-04 -2.315176e-04
          -2.261689e-04 -2.296615e-04 -2.533152e-04 -3.745065e-04 -3.771118e-04 -3.759039e-04
          -3.693296e-04 -2.450728e-04 -2.310793e-04 -2.335869e-04 -2.412816e-04 -2.556114e-04
          -2.994770e-04 -3.342730e-04 -3.313896e-04 -3.351763e-04 -3.363732e-04 -3.247169e-04
          -3.151853e-04 -3.421861e-04 -3.466627e-04 -2.366544e-04 -2.209282e-04 -2.462119e-04
          -2.604582e-04 -2.708085e-04 -2.744582e-04 -2.713634e-04 -2.664247e-04 -2.527445e-04
          2.489582e-04 2.979276e-04 3.212773e-04 2.947093e-04 2.608211e-04 1.950512e-04
          7.939641e-05 -2.128591e-04 -2.358272e-04 -2.446150e-04 -2.218410e-04 -2.534812e-04
          -3.946418e-04 -4.585794e-04 -5.164619e-04 -5.579623e-04 -3.395429e-04 -2.203007e-04
          -2.164275e-04 -2.111864e-04 -3.037936e-04 -4.687683e-04 -5.171215e-04 -5.234127e-04
          -5.160779e-04 -3.350172e-04 -2.792830e-04 -2.642559e-04 -2.453036e-04 -2.423620e-04
          -4.182949e-04 -5.588321e-04 -5.715732e-04 -5.605571e-04 -5.228683e-04 -4.645348e-04
          -4.224847e-04 -3.653199e-04 -3.124146e-04 -4.467177e-04 -1.380560e-04 -1.279588e-04
          -1.841496e-04 -1.824428e-04 -1.823574e-04 -1.988926e-04 -2.173248e-04 -2.810883e-04
          2.292310e-04 -4.781686e-05 -1.392996e-04 -2.812255e-06 1.209970e-04 2.967515e-04
          -1.203449e-04 -7.662670e-05 -1.448210e-04 -8.444411e-05 -2.023119e-04 -1.916756e-04
          -3.553543e-04 -5.886744e-04 -2.485377e-04 1.631064e-04 -3.899505e-04 -3.987540e-04
          -3.624344e-04 -4.009177e-04 -2.324524e-04 -5.835004e-04 -4.480965e-04 -4.189483e-04
          -3.943801e-04 -7.111392e-05 -1.630906e-04 -2.387144e-04 -3.653191e-04 -4.911756e-04
          -2.354430e-04 -4.416735e-05 8.905526e-06 -5.264966e-05 -1.959501e-04 -3.449369e-04
          -4.519710e-04 -8.148854e-04 -9.900940e-04 3.529710e-04 -3.997725e-04 -4.382575e-04
          -2.840756e-04 -3.498732e-04 -3.774205e-04 -3.005911e-04 -2.062613e-04 8.037491e-05
          -9.775496e-05 1.407708e-04 2.227027e-04 1.025786e-04 -1.126985e-05 -1.815755e-04
          1.035154e-04 -1.847735e-05 3.334628e-05 -1.620561e-05 8.625917e-05 5.121337e-05
          4.201257e-05 1.473349e-04 -1.511138e-04 -4.879817e-04 1.088960e-04 2.389753e-04
          2.193259e-04 2.513170e-04 5.141079e-05 1.376321e-04 -3.279408e-07 -2.633051e-05
          -3.623331e-05 -8.433897e-05 3.104334e-05 9.656333e-05 2.013562e-04 2.893135e-04
          -5.869639e-05 -3.309044e-04 -3.823204e-04 -3.288975e-04 -1.975108e-04 -4.987898e-05
          5.655792e-05 3.699065e-04 5.484574e-04 -5.105258e-04 2.771780e-04 3.202320e-04
          1.713569e-04 2.218767e-04 2.419843e-04 1.735447e-04 9.089902e-05 -1.642194e-04
          -1.855423e-04 -1.970003e-04 -2.052232e-04 -2.002353e-04 -1.907139e-04 -1.681737e-04
          -5.986198e-05 1.637379e-04 1.986978e-04 2.093796e-04 2.050351e-04 2.052428e-04
          1.950840e-04 1.802216e-04 1.831225e-04 1.846254e-04 1.664290e-04 1.762484e-04
          1.797557e-04 1.789494e-04 1.934269e-04 1.829567e-04 1.898834e-04 1.912164e-04
          1.921227e-04 2.044262e-04 1.981149e-04 1.936002e-04 1.873880e-04 1.801405e-04
          1.894151e-04 1.924910e-04 1.917822e-04 1.897740e-04 1.800402e-04 1.611732e-04
          1.472201e-04 1.411451e-04 1.419809e-04 1.994949e-04 1.551573e-04 1.727039e-04
          1.943112e-04 1.958021e-04 1.955671e-04 1.990245e-04 2.028286e-04 2.159995e-04
          -1.534207e-04 -1.978877e-04 -2.177873e-04 -1.968799e-04 -1.726691e-04 -1.291346e-04
          -5.785651e-05 1.921458e-04 2.332774e-04 2.648164e-04 2.491627e-04 2.471938e-04
          1.988928e-04 1.449415e-04 1.846736e-04 2.310814e-04 1.326800e-04 1.274847e-04
          1.341982e-04 1.296203e-04 1.723102e-04 1.458011e-04 1.691912e-04 1.739539e-04
          1.763361e-04 1.980759e-04 1.759462e-04 1.623074e-04 1.415872e-04 1.215391e-04
          1.771815e-04 2.159905e-04 2.220928e-04 2.130966e-04 1.864663e-04 1.482801e-04
          1.191088e-04 7.016079e-05 4.809966e-05 2.629897e-04 1.510831e-04 1.842779e-04
          2.296092e-04 2.244903e-04 2.209400e-04 2.331567e-04 2.476723e-04 2.894088e-04
          -1.164868e-04 3.892279e-05 9.016568e-05 1.114858e-05 -6.212808e-05 -1.690695e-04
          6.829156e-05 8.140325e-05 1.437558e-04 1.300873e-04 2.002901e-04 1.718696e-04
          1.344548e-04 1.827227e-04 -2.000284e-05 -2.483982e-04 1.325287e-04 2.115908e-04
          1.988042e-04 2.208112e-04 9.923936e-05 1.740154e-04 8.371838e-05 6.673434e-05
          5.921456e-05 7.247242e-06 7.805504e-05 1.201860e-04 1.885790e-04 2.465590e-04
          3.035522e-05 -1.398610e-04 -1.740728e-04 -1.386678e-04 -5.363793e-05 3.769730e-05
          1.018470e-04 3.094938e-04 4.277254e-04 -2.590310e-04 2.836086e-04 3.419326e-04
          2.552312e-04 2.905892e-04 3.037250e-04 2.586417e-04 2.040726e-04 3.134966e-05
          4.437484e-06 -1.047820e-04 -1.428687e-04 -8.975672e-05 -3.953915e-05 3.586718e-05
          -6.814564e-05 5.902206e-05 5.549614e-05 8.852356e-05 4.355015e-05 4.432185e-05
          -4.032552e-05 -1.463985e-04 -1.963125e-05 1.347811e-04 -7.699972e-05 -7.135777e-05
          -5.566321e-05 -7.013903e-05 -1.308240e-06 -1.445471e-04 -9.200954e-05 -8.048309e-05
          -7.055869e-05 6.296966e-05 2.637071e-05 -4.084789e-06 -5.452017e-05 -1.059308e-04
          -9.550276e-06 6.010011e-05 7.938995e-05 5.555081e-05 -2.081365e-06 -6.610179e-05
          -1.128738e-04 -2.511708e-04 -3.149402e-04 2.217209e-04 -6.235710e-05 -5.984836e-05
          9.225856e-06 -1.466999e-05 -2.541704e-05 4.649540e-06 4.150351e-05 1.523807e-04
          -1.506859e-05 1.348662e-04 1.873793e-04 1.108326e-04 3.645386e-05 -7.745387e-05
          7.885647e-05 -2.475232e-05 1.243336e-05 -9.923297e-06 5.660584e-05 2.430646e-05
          -4.006863e-05 -1.057299e-05 -2.016473e-04 -4.097472e-04 -5.822855e-06 1.048654e-04
          9.521264e-05 1.155080e-04 -2.280604e-05 -2.011916e-05 -1.134091e-04 -1.300440e-04
          -1.336763e-04 -1.102438e-04 -2.927926e-05 1.209279e-05 7.710454e-05 1.275224e-04
          -1.212530e-04 -3.176279e-04 -3.511930e-04 -3.173059e-04 -2.317425e-04 -1.330486e-04
          -6.265735e-05 1.345430e-04 2.537329e-04 -3.838084e-04 1.702004e-04 2.119687e-04
          1.158102e-04 1.462120e-04 1.576011e-04 1.135515e-04 6.079483e-05 -1.059142e-04
          -2.001874e-05 -7.870005e-05 -9.897702e-05 -7.045596e-05 -4.312222e-05 -1.139575e-06
          -5.142881e-05 2.768799e-05 2.177867e-05 3.272017e-05 7.185770e-06 9.314539e-06
          -2.714631e-05 -7.903048e-05 -1.013737e-05 7.355874e-05 -3.084085e-05 -1.809303e-05
          -8.806630e-06 -1.689403e-05 1.584444e-05 -7.647969e-05 -4.845392e-05 -4.217824e-05
          -3.599447e-05 5.329826e-05 3.630062e-05 1.991934e-05 -7.555948e-06 -3.683505e-05
          5.084018e-06 3.402114e-05 4.380412e-05 3.084406e-05 -4.902661e-07 -3.521714e-05
          -5.988920e-05 -1.332965e-04 -1.653758e-04 1.250074e-04 -4.018111e-05 -4.805444e-05
          -1.240942e-05 -2.552795e-05 -3.121893e-05 -1.489027e-05 5.215628e-06 6.791109e-05
          1.605072e-05 8.354629e-05 1.090198e-04 7.556330e-05 4.233977e-05 -9.106296e-06
          2.560414e-05 -9.026391e-05 -1.019416e-04 -1.340611e-04 -1.081613e-04 -1.130576e-04
          -8.707532e-05 -3.894889e-05 -1.159353e-04 -2.029722e-04 -2.410688e-05 2.073387e-05
          1.533424e-05 2.344461e-05 -4.234244e-05 -3.945780e-05 -7.829893e-05 -8.547201e-05
          -8.710275e-05 -7.700530e-05 -3.980176e-05 -2.067072e-05 8.914657e-06 3.250046e-05
          -7.825809e-05 -1.642225e-04 -1.782320e-04 -1.636685e-04 -1.259699e-04 -7.971371e-05
          -4.494619e-05 4.108533e-05 9.045016e-05 -2.109240e-04 -1.545748e-05 -3.212683e-05
          -8.372260e-05 -7.179265e-05 -6.619720e-05 -8.516796e-05 -1.077651e-04 -1.735686e-04
          1.502999e-04 2.096075e-04 2.357324e-04 2.069034e-04 1.741022e-04 1.170897e-04
          4.867961e-05 -2.232833e-04 -2.689554e-04 -3.115303e-04 -2.908174e-04 -2.947898e-04
          -2.694064e-04 -2.238235e-04 -2.819265e-04 -3.437994e-04 -1.706988e-04 -1.191915e-04
          -1.236461e-04 -1.176766e-04 -1.902738e-04 -2.247638e-04 -2.616768e-04 -2.681159e-04
          -2.676163e-04 -2.204140e-04 -1.799511e-04 -1.621222e-04 -1.362140e-04 -1.171658e-04
          -2.343264e-04 -3.237336e-04 -3.348445e-04 -3.225963e-04 -2.863926e-04 -2.345521e-04
          -1.948884e-04 -1.254295e-04 -8.394483e-05 -3.405753e-04 -1.633405e-04 -2.034234e-04
          -2.637915e-04 -2.574444e-04 -2.534506e-04 -2.702075e-04 -2.897960e-04 -3.454682e-04
          3.588778e-05 -3.295974e-06 -1.514661e-05 6.105901e-06 2.570321e-05 5.491079e-05
          -2.658384e-05 -7.898761e-05 -1.186974e-04 -1.349659e-04 -1.563949e-04 -1.376741e-04
          -6.203749e-05 -3.223715e-05 2.748751e-05 8.880131e-05 -2.401858e-05 -6.264315e-05
          -6.166827e-05 -6.802742e-05 -3.390663e-05 -2.601061e-05 2.096400e-06 6.735184e-06
          7.332654e-06 -6.817020e-06 -2.826585e-05 -3.855055e-05 -5.509406e-05 -6.650711e-05
          4.045956e-06 6.168155e-05 7.192360e-05 6.234909e-05 3.915162e-05 1.537570e-05
          1.141051e-07 -5.473326e-05 -9.153901e-05 5.772613e-05 -1.434943e-04 -1.905760e-04
          -1.740044e-04 -1.837231e-04 -1.862117e-04 -1.737688e-04 -1.588490e-04 -1.060547e-04
          -1.726355e-04 -1.701800e-04 -1.733958e-04 -1.722119e-04 -1.649285e-04 -1.436551e-04
          -3.681592e-05 1.062354e-04 1.144113e-04 1.020739e-04 9.981266e-05 1.254908e-04
          2.745656e-04 3.687306e-04 3.697444e-04 3.487522e-04 2.633217e-04 1.737838e-04
          1.652989e-04 1.661483e-04 2.080036e-04 3.767067e-04 3.944481e-04 3.951052e-04
          3.864088e-04 2.098584e-04 1.825451e-04 1.823840e-04 1.862450e-04 2.021524e-04
          2.961250e-04 3.741835e-04 3.770468e-04 3.771205e-04 3.695055e-04 3.502442e-04
          3.371096e-04 3.425706e-04 3.249547e-04 2.321604e-04 8.986066e-05 6.991015e-05
          8.374585e-05 9.010702e-05 9.392518e-05 9.576942e-05 9.674660e-05 1.075696e-04
          -2.108933e-04 -7.436476e-05 -3.191094e-05 -9.809796e-05 -1.546797e-04 -2.291390e-04
          3.932650e-05 1.105834e-04 1.541040e-04 1.222867e-04 1.793175e-04 1.854674e-04
          3.313276e-04 4.867400e-04 3.192719e-04 1.060576e-04 3.339591e-04 2.946559e-04
          2.729682e-04 2.923388e-04 2.319923e-04 4.877700e-04 4.301055e-04 4.161345e-04
          3.997891e-04 1.536201e-04 1.846317e-04 2.213087e-04 2.849416e-04 3.541582e-04
          2.760921e-04 2.211883e-04 1.963871e-04 2.266190e-04 2.926887e-04 3.549345e-04
          3.997122e-04 5.804157e-04 6.581655e-04 -4.162469e-05 2.623642e-04 2.775751e-04
          2.111863e-04 2.469606e-04 2.622978e-04 2.256098e-04 1.798460e-04 4.396425e-05
          -6.313780e-06 -1.284432e-04 -1.724593e-04 -1.109943e-04 -5.144615e-05 4.019332e-05
          -6.184639e-05 7.762641e-05 6.936689e-05 1.038773e-04 5.273831e-05 6.882841e-05
          6.253763e-05 9.861067e-07 1.487369e-04 3.146366e-04 4.354614e-06 -6.512884e-05
          -5.488572e-05 -7.078300e-05 3.759155e-05 5.624558e-06 7.670614e-05 8.991720e-05
          9.437690e-05 1.064017e-04 4.459181e-05 1.045504e-05 -4.345017e-05 -8.797786e-05
          9.648289e-05 2.399132e-04 2.655381e-04 2.385323e-04 1.701845e-04 9.014563e-05
          3.170293e-05 -1.259979e-04 -2.157300e-04 3.266451e-04 -6.940243e-05 -7.578840e-05
          7.502455e-06 -1.648383e-05 -2.656358e-05 8.437322e-06 5.034528e-05 1.786866e-04
          -1.821995e-05 2.284160e-04 3.137490e-04 1.900084e-04 7.037099e-05 -1.116348e-04
          1.467045e-04 -4.719603e-05 5.737998e-06 -3.482796e-05 7.355421e-05 3.465995e-05
          1.145402e-05 1.136001e-04 -1.938925e-04 -5.407209e-04 5.659711e-05 1.689433e-04
          1.462572e-04 1.797183e-04 -2.000451e-05 1.002313e-04 -4.199181e-05 -6.911492e-05
          -8.106844e-05 -1.666885e-04 -5.213403e-05 1.591442e-05 1.250945e-04 2.200682e-04
          -1.195791e-04 -3.827123e-04 -4.339938e-04 -3.786062e-04 -2.411788e-04 -8.534425e-05
          2.577457e-05 3.464516e-04 5.250048e-04 -5.765872e-04 2.622381e-04 3.195415e-04
          1.652452e-04 2.173302e-04 2.377432e-04 1.666016e-04 8.044438e-05 -1.894817e-04
          1.060199e-04 1.045672e-04 1.081504e-04 1.094055e-04 1.062933e-04 9.653033e-05
          2.115186e-06 -1.511633e-04 -1.919187e-04 -2.153759e-04 -2.199094e-04 -2.191459e-04
          -2.167204e-04 -2.151815e-04 -2.035093e-04 -1.848874e-04 -1.481420e-04 -1.117394e-04
          -1.090624e-04 -1.109597e-04 -1.351912e-04 -2.137125e-04 -2.177255e-04 -2.177031e-04
          -2.134835e-04 -1.292963e-04 -1.152234e-04 -1.146961e-04 -1.164865e-04 -1.228332e-04
          -1.661999e-04 -2.003143e-04 -2.002114e-04 -2.011993e-04 -1.988941e-04 -1.877608e-04
          -1.777763e-04 -1.839732e-04 -1.810652e-04 -1.550904e-04 -1.608801e-04 -1.983696e-04
          -2.154329e-04 -2.206131e-04 -2.218879e-04 -2.214710e-04 -2.204910e-04 -2.129605e-04
          5.179759e-05 7.221223e-05 8.298929e-05 7.437563e-05 6.406276e-05 4.688106e-05
          -3.111749e-06 -1.530952e-04 -1.998498e-04 -2.417503e-04 -2.396767e-04 -2.279022e-04
          -1.443511e-04 -8.159799e-05 -9.140072e-05 -1.069915e-04 -5.442583e-05 -4.583085e-05
          -4.889597e-05 -4.797949e-05 -7.471093e-05 -7.662435e-05 -8.439122e-05 -8.616678e-05
          -8.638891e-05 -7.860151e-05 -6.523275e-05 -5.865036e-05 -4.931314e-05 -4.115052e-05
          -7.590749e-05 -1.006692e-04 -1.032435e-04 -9.986024e-05 -8.914457e-05 -7.122930e-05
          -5.540979e-05 -3.364743e-05 -2.466717e-05 -1.347736e-04 -1.488516e-04 -2.057816e-04
          -2.345958e-04 -2.338620e-04 -2.316937e-04 -2.362471e-04 -2.415367e-04 -2.485261e-04
          -1.983588e-04 -1.916085e-04 -1.930424e-04 -1.940771e-04 -1.883515e-04 -1.681799e-04
          -5.091206e-05 1.005161e-04 1.047003e-04 8.366229e-05 8.182571e-05 1.090943e-04
          2.704877e-04 3.737244e-04 3.705180e-04 3.444664e-04 2.780295e-04 1.996511e-04
          1.915837e-04 1.927716e-04 2.270215e-04 3.832217e-04 3.986190e-04 3.990393e-04
          3.909176e-04 2.295838e-04 2.065703e-04 2.076398e-04 2.131679e-04 2.289172e-04
          3.079012e-04 3.733985e-04 3.748297e-04 3.757021e-04 3.698334e-04 3.527360e-04
          3.417233e-04 3.536796e-04 3.409980e-04 2.305085e-04 8.606554e-05 5.608305e-05
          6.577996e-05 7.264302e-05 7.694836e-05 7.777068e-05 7.777873e-05 8.780386e-05
          -2.986847e-04 -3.099507e-04 -3.192833e-04 -3.123058e-04 -2.966892e-04 -2.577899e-04
          -9.940447e-05 1.813276e-04 2.003726e-04 1.846297e-04 1.747914e-04 2.003090e-04
          3.349327e-04 4.106416e-04 4.225091e-04 4.164241e-04 3.377548e-04 2.859303e-04
          2.833417e-04 2.821783e-04 3.223576e-04 4.221439e-04 4.442350e-04 4.465048e-04
          4.418204e-04 3.399306e-04 3.156783e-04 3.110556e-04 3.070508e-04 3.099882e-04