<?xml version="1.0"?>
<VTKFile type="RectilinearGrid" version="0.1" byte_order="LittleEndian">
  <RectilinearGrid WholeExtent="0 47 0 47 0 47">
    <Piece Extent="0 47 0 47 0 47">
      <PointData Scalars="concentration">
        <DataArray type="Float32" Name="concentration" NumberOfComponents="1" format="ascii">
          3.384797e-06 4.228541e-05 5.590534e-05 3.748306e-05 2.085995e-05 -3.643915e-06
          3.053645e-05 -2.903162e-05 -3.283133e-05 -4.743620e-05 -3.194597e-05 -2.617214e-05
          3.995111e-05 1.009119e-04 5.922994e-05 3.124725e-06 5.123316e-05 2.117999e-05
          1.293145e-05 1.815911e-05 4.251656e-06 1.012447e-04 8.733250e-05 8.345821e-05
          7.753833e-05 -1.948171e-05 -1.393223e-05 -3.060185e-06 1.593354e-05 3.897781e-05
          3.265121e-05 3.204525e-05 2.680706e-05 3.504426e-05 5.413211e-05 7.439212e-05
          8.931084e-05 1.366412e-04 1.518934e-04 -6.007588e-05 8.855530e-06 1.226311e-06
          -2.220634e-05 -1.315302e-05 -8.729712e-06 -1.879752e-05 -3.147169e-05 -6.841025e-05
          -9.372615e-05 -5.600553e-05 -4.965863e-05 -6.675378e-05 -7.677291e-05 -8.460851e-05
          7.065925e-05 1.971705e-04 2.566729e-04 2.904194e-04 3.138781e-04 3.234359e-04
          4.140551e-04 4.911359e-04 4.388671e-04 3.560212e-04 2.803972e-04 1.313865e-04
          1.134366e-04 1.219092e-04 1.722658e-04 4.871518e-04 4.882427e-04 4.846184e-04
          4.671146e-04 1.333642e-04 9.939308e-05 1.087497e-04 1.312233e-04 1.730806e-04
          2.992757e-04 4.075305e-04 4.067034e-04 4.156951e-04 4.285370e-04 4.273917e-04
          4.222514e-04 4.701151e-04 4.631107e-04 1.919265e-04 2.446699e-04 3.058201e-04
          3.152539e-04 3.329999e-04 3.397738e-04 3.303012e-04 3.171787e-04 2.680102e-04
          -1.680345e-04 5.807063e-05 1.276007e-04 1.642519e-05 -8.167837e-05 -2.199243e-04
          1.801719e-04 2.276204e-04 3.406167e-04 3.487919e-04 4.557646e-04 4.427355e-04
          5.572272e-04 7.384766e-04 4.500671e-04 9.296465e-05 4.296516e-04 3.232217e-04
          2.841958e-04 3.190799e-04 2.387881e-04 7.254783e-04 6.251598e-04 6.011409e-04
          5.703076e-04 8.578426e-05 1.252733e-04 1.862871e-04 2.937594e-04 4.150037e-04
          3.291123e-04 2.752601e-04 2.368407e-04 2.881430e-04 4.027708e-04 5.117796e-04
          5.845185e-04 8.783336e-04 9.991153e-04 -1.452265e-04 5.086155e-04 6.204376e-04
          5.214816e-04 5.819576e-04 6.057607e-04 5.425306e-04 4.640569e-04 2.096847e-04
          -6.606231e-05 -2.316615e-04 -2.952457e-04 -2.114832e-04 -1.260461e-04 9.473682e-06
          -5.719803e-05 2.349792e-04 2.581142e-04 3.311034e-04 2.664018e-04 2.943973e-04
          3.244832e-04 2.662531e-04 4.616095e-04 6.691590e-04 1.594581e-04 -2.236076e-05
          -1.587265e-05 -3.528372e-05 1.558145e-04 2.706852e-04 3.786567e-04 3.968388e-04
          3.945150e-04 2.393657e-04 1.275656e-04 8.065219e-05 1.074873e-05 -3.557892e-05
          3.099378e-04 5.833151e-04 6.215815e-04 5.852774e-04 4.882958e-04 3.656407e-04
          2.736089e-04 5.979450e-05 -7.930032e-05 6.049431e-04 3.849210e-05 6.573668e-05
          1.985190e-04 1.715242e-04 1.598726e-04 2.077969e-04 2.646150e-04 4.326104e-04
          -5.410163e-05 1.037706e-04 1.581074e-04 7.931388e-05 5.236919e-06 -1.051949e-04
          7.714271e-05 -2.671649e-05 3.131996e-07 -3.651457e-05 3.057833e-05 1.487312e-05
          5.270202e-05 1.507430e-04 -4.244782e-05 -2.664065e-04 9.627562e-05 1.486767e-04
          1.322758e-04 1.534852e-04 3.376437e-05 1.455802e-04 5.988014e-05 4.287751e-05
          3.356523e-05 -5.707258e-05 1.042385e-05 5.387322e-05 1.244046e-04 1.882585e-04
          -8.752530e-06 -1.601453e-04 -1.919921e-04 -1.570925e-04 -7.157458e-05 2.347354e-05
          9.214248e-05 2.973163e-04 4.064725e-04 -3.202942e-04 1.623820e-04 1.818750e-04
          8.422643e-05 1.182754e-04 1.324771e-04 8.774535e-05 3.350845e-05 -1.323733e-04
          1.662692e-05 1.765242e-04 2.376271e-04 1.571290e-04 7.697351e-05 -4.804883e-05
          3.308962e-05 -2.265476e-04 -2.567367e-04 -3.399681e-04 -2.802273e-04 -2.987965e-04
          -2.795468e-04 -1.937546e-04 -3.786694e-04 -5.800410e-04 -9.915545e-05 6.568278e-05
          5.839416e-05 7.667906e-05 -1.033389e-04 -1.943328e-04 -2.941561e-04 -3.114501e-04
          -3.099696e-04 -1.795984e-04 -7.493525e-05 -2.993681e-05 3.763456e-05 8.410271e-05
          -2.381832e-04 -4.927242e-04 -5.290869e-04 -4.947337e-04 -4.033545e-04 -2.889826e-04
          -2.019511e-04 4.678314e-06 1.358688e-04 -5.405918e-04 -4.589637e-05 -9.147361e-05
          -2.194250e-04 -1.930048e-04 -1.807650e-04 -2.262200e-04 -2.802624e-04 -4.347368e-04
          7.855856e-05 -1.389088e-04 -2.079512e-04 -9.969088e-05 1.440937e-07 1.466271e-04
          -1.855672e-04 -1.646812e-04 -2.708621e-04 -2.847228e-04 -3.893228e-04 -3.596699e-04
          -3.703347e-04 -4.821466e-04 -2.005602e-04 1.327777e-04 -2.604164e-04 -2.271296e-04
          -1.958842e-04 -2.290107e-04 -1.202512e-04 -4.652114e-04 -3.552612e-04 -3.315676e-04
          -3.081404e-04 2.744994e-05 -3.135478e-05 -9.059209e-05 -1.918151e-04 -2.970044e-04
          -1.414224e-04 -2.850063e-05 1.157663e-05 -3.840184e-05 -1.542564e-04 -2.718949e-04
          -3.508056e-04 -6.339086e-04 -7.658734e-04 2.782322e-04 -4.480053e-04 -5.677218e-04
          -4.628498e-04 -5.175789e-04 -5.380810e-04 -4.755946e-04 -3.988885e-04 -1.461171e-04
          -1.023406e-04 2.252819e-04 3.401334e-04 1.770808e-04 2.272610e-05 -2.079381e-04
          1.406997e-04 -1.268853e-04 -9.584189e-05 -1.937369e-04 -5.848011e-05 -8.565262e-05
          2.262799e-05 2.446664e-04 -1.499670e-04 -6.075994e-04 1.658617e-04 2.939202e-04
          2.611008e-04 3.040119e-04 4.255853e-05 2.372513e-04 5.890519e-05 2.390651e-05
          6.513494e-06 -1.399010e-04 7.584173e-06 9.821902e-05 2.440736e-04 3.736175e-04
          -5.836382e-05 -3.909576e-04 -4.576060e-04 -3.854875e-04 -2.079702e-04 -7.159694e-06
          1.398465e-04 5.647995e-04 7.936292e-04 -7.130856e-04 2.561854e-04 2.641919e-04
          5.207005e-05 1.205940e-04 1.498663e-04 5.767814e-05 -5.397481e-05 -3.902580e-04
          -7.423020e-05 -9.919075e-05 -1.098328e-04 -9.626347e-05 -7.974407e-05 -4.994236e-05
          -2.570649e-05 6.153162e-05 6.199430e-05 6.350586e-05 5.154749e-05 6.849760e-05
          1.463322e-04 1.834111e-04 2.165676e-04 2.421624e-04 1.263540e-04 5.997788e-05
          5.726049e-05 5.438543e-05 1.005614e-04 1.880708e-04 2.130634e-04 2.162955e-04
          2.124066e-04 1.154638e-04 8.698391e-05 7.961696e-05 7.028941e-05 6.977959e-05
          1.628650e-04 2.384206e-04 2.458622e-04 2.399579e-04 2.214478e-04 1.948270e-04
          1.757826e-04 1.436651e-04 1.135903e-04 1.799957e-04 2.108423e-05 9.277025e-06
          3.388682e-05 3.173997e-05 3.157719e-05 4.006301e-05 4.969916e-05 8.257003e-05
          -1.103123e-04 -7.760735e-05 -7.060776e-05 -8.556425e-05 -9.460787e-05 -1.011907e-04
          2.589375e-05 1.284544e-04 1.624856e-04 1.710655e-04 1.874085e-04 1.983415e-04
          2.901827e-04 3.640938e-04 3.219377e-04 2.558018e-04 2.280364e-04 1.367105e-04
          1.243145e-04 1.305637e-04 1.559325e-04 3.643012e-04 3.625473e-04 3.595591e-04
          3.479019e-04 1.303571e-04 1.124200e-04 1.206112e-04 1.386993e-04 1.687358e-04
          2.379968e-04 2.980485e-04 2.954862e-04 3.028816e-04 3.141378e-04 3.159212e-04
          3.153725e-04 3.585705e-04 3.603050e-04 1.390180e-04 1.629060e-04 1.873872e-04
          1.876665e-04 2.010593e-04 2.067625e-04 1.988556e-04 1.882044e-04 1.536105e-04
          -9.909083e-05 -6.351741e-05 -5.581174e-05 -7.233572e-05 -8.314053e-05 -9.269562e-05
          4.000682e-05 1.443556e-04 1.865343e-04 2.030231e-04 2.223190e-04 2.303032e-04
          3.084578e-04 3.755802e-04 3.277992e-04 2.556401e-04 2.272879e-04 1.295519e-04
          1.162983e-04 1.234037e-04 1.505845e-04 3.739727e-04 3.704362e-04 3.670301e-04
          3.544168e-04 1.202901e-04 1.012878e-04 1.102462e-04 1.300030e-04 1.624099e-04
          2.361194e-04 3.000534e-04 2.972032e-04 3.054901e-04 3.187020e-04 3.221045e-04
          3.218301e-04 3.687788e-04 3.714155e-04 1.363476e-04 1.863227e-04 2.236508e-04
          2.246616e-04 2.392009e-04 2.450662e-04 2.360675e-04 2.240638e-04 1.825458e-04
          1.752083e-05 1.798721e-05 1.897630e-05 1.918579e-05 1.922853e-05 1.933348e-05
          8.124965e-06 -2.133513e-05 -2.894962e-05 -3.291028e-05 -3.328353e-05 -2.841638e-05
          1.472254e-06 2.132768e-05 2.419117e-05 2.356134e-05 4.887132e-06 -1.641059e-05
          -1.868318e-05 -1.854686e-05 -1.211985e-05 2.210900e-05 2.538050e-05 2.548490e-05
          2.361630e-05 -1.327317e-05 -1.798969e-05 -1.771756e-05 -1.647685e-05 -1.259299e-05
          7.146023e-06 2.455691e-05 2.583886e-05 2.580958e-05 2.531288e-05 2.498249e-05
          2.470626e-05 2.381075e-05 1.812347e-05 -1.964964e-06 -2.536419e-05 -3.343486e-05
          -3.450886e-05 -3.442780e-05 -3.389772e-05 -3.355163e-05 -3.330235e-05 -3.192467e-05
          1.252878e-04 1.091787e-04 1.090635e-04 1.169926e-04 1.199361e-04 1.183252e-04
          -5.940504e-06 -1.696599e-04 -2.180213e-04 -2.411166e-04 -2.522744e-04 -2.511873e-04
          -2.578756e-04 -2.688438e-04 -2.386300e-04 -1.970584e-04 -1.826067e-04 -1.404425e-04
          -1.353172e-04 -1.392697e-04 -1.585118e-04 -2.668589e-04 -2.645356e-04 -2.628802e-04
          -2.568809e-04 -1.435715e-04 -1.319404e-04 -1.353175e-04 -1.436361e-04 -1.576427e-04
          -1.946776e-04 -2.245309e-04 -2.219985e-04 -2.261396e-04 -2.310261e-04 -2.263376e-04
          -2.208011e-04 -2.459376e-04 -2.511646e-04 -1.522656e-04 -1.968822e-04 -2.406881e-04
          -2.517318e-04 -2.610494e-04 -2.638808e-04 -2.593426e-04 -2.532676e-04 -2.300213e-04
          1.078750e-04 1.597314e-04 1.820144e-04 1.561879e-04 1.275644e-04 7.905729e-05
          4.432688e-05 -1.490802e-04 -1.743260e-04 -2.014990e-04 -1.815253e-04 -1.883938e-04
          -1.848147e-04 -1.566590e-04 -2.120124e-04 -2.710889e-04 -1.219617e-04 -7.874981e-05
          -8.248762e-05 -7.660993e-05 -1.365838e-04 -1.588104e-04 -1.916801e-04 -1.973776e-04
          -1.975228e-04 -1.652017e-04 -1.312297e-04 -1.159413e-04 -9.303623e-05 -7.599862e-05
          -1.747124e-04 -2.504318e-04 -2.607553e-04 -2.494938e-04 -2.178828e-04 -1.745028e-04
          -1.421070e-04 -7.922777e-05 -4.152910e-05 -2.646895e-04 -9.100755e-05 -1.098761e-04
          -1.578504e-04 -1.511118e-04 -1.477073e-04 -1.625335e-04 -1.801604e-04 -2.328508e-04
          5.917407e-05 -1.182671e-05 -3.613402e-05 7.409236e-08 3.396456e-05 8.418504e-05
          -8.313258e-06 6.357749e-06 -7.045752e-06 1.451440e-05 -1.451641e-05 -2.396700e-06
          1.200923e-05 -1.066022e-05 7.903927e-05 1.770879e-04 -2.906458e-05 -9.775113e-05
          -9.464280e-05 -1.036024e-04 -3.238068e-05 -9.073057e-06 3.520105e-05 4.298471e-05
          4.314994e-05 3.533072e-06 -3.864404e-05 -5.800171e-05 -8.776564e-05 -1.088547e-04
          2.458576e-05 1.313595e-04 1.482727e-04 1.326594e-04 9.312565e-05 4.809921e-05
          1.472320e-05 -8.034417e-05 -1.407185e-04 1.570916e-04 -8.136087e-05 -8.681227e-05
          -4.004110e-05 -5.433679e-05 -6.009146e-05 -3.947510e-05 -1.490363e-05 5.829489e-05
          -1.009459e-05 8.801081e-05 1.200005e-04 7.199877e-05 2.745771e-05 -3.806640e-05
          9.454950e-05 4.335610e-05 8.005330e-05 8.071393e-05 1.269975e-04 1.206003e-04
          1.668906e-04 2.445848e-04 1.225422e-04 -2.741015e-05 1.225931e-04 7.808381e-05
          6.099554e-05 7.592055e-05 3.617980e-05 2.380283e-04 1.932849e-04 1.828386e-04
          1.697283e-04 -3.154178e-05 -1.191655e-05 1.508425e-05 6.209593e-05 1.146693e-04
          7.238199e-05 4.606724e-05 2.989027e-05 5.229596e-05 1.034634e-04 1.555833e-04
          1.906624e-04 3.159012e-04 3.670630e-04 -1.280316e-04 1.645104e-04 2.067402e-04
          1.582131e-04 1.829390e-04 1.927174e-04 1.652710e-04 1.312367e-04 2.000306e-05
          5.559414e-05 -4.106021e-06 -2.514275e-05 4.998388e-06 3.326741e-05 7.492144e-05
          5.423210e-06 3.269474e-05 3.255559e-05 6.144925e-05 3.914452e-05 4.575746e-05
          3.833616e-05 7.311786e-06 7.959935e-05 1.592343e-04 -2.105129e-05 -8.543913e-05
          -8.326546e-05 -9.026554e-05 -2.583560e-05 6.616841e-06 4.341650e-05 4.983603e-05
          4.919937e-05 1.013294e-06 -3.690020e-05 -5.328425e-05 -7.807493e-05 -9.465563e-05
          2.546410e-05 1.216135e-04 1.359884e-04 1.231210e-04 9.026681e-05 5.182444e-05
          2.227508e-05 -5.729125e-05 -1.086039e-04 1.429145e-04 -3.573652e-05 -2.413225e-05
          1.883961e-05 7.594677e-06 2.635117e-06 1.961581e-05 3.979058e-05 9.670184e-05
          7.122883e-05 2.095609e-05 7.721129e-06 3.237665e-05 5.282382e-05 8.000697e-05
          -4.239588e-05 -1.105914e-04 -1.529639e-04 -1.663717e-04 -1.920354e-04 -1.876594e-04
          -2.037083e-04 -2.377299e-04 -1.694026e-04 -8.419657e-05 -1.444182e-04 -1.078485e-04
          -9.839278e-05 -1.067509e-04 -9.863279e-05 -2.337399e-04 -2.125593e-04 -2.071604e-04
          -1.989657e-04 -6.215508e-05 -6.526253e-05 -7.850370e-05 -1.026212e-04 -1.314051e-04
          -1.286462e-04 -1.293796e-04 -1.209244e-04 -1.326224e-04 -1.571891e-04 -1.770254e-04
          -1.893417e-04 -2.557337e-04 -2.813457e-04 -2.359225e-05 -1.773476e-04 -2.202515e-04
          -2.054677e-04 -2.208805e-04 -2.264556e-04 -2.122030e-04 -1.943837e-04 -1.344642e-04
          2.725931e-05 2.847835e-04 3.805748e-04 2.512311e-04 1.234806e-04 -7.402960e-05
          1.008423e-04 -2.570626e-04 -2.697262e-04 -3.692805e-04 -2.664174e-04 -2.980387e-04
          -2.727612e-04 -1.360567e-04 -4.412710e-04 -7.806150e-04 -7.730944e-05 1.162965e-04
          9.834862e-05 1.301653e-04 -1.239752e-04 -1.420254e-04 -2.960518e-04 -3.239294e-04
          -3.287387e-04 -2.600735e-04 -1.135669e-04 -4.139002e-05 7.039399e-05 1.572086e-04
          -2.846357e-04 -6.303221e-04 -6.860803e-04 -6.296861e-04 -4.841531e-04 -3.080767e-04
          -1.774661e-04 1.555063e-04 3.533105e-04 -7.722524e-04 4.452800e-05 1.951018e-05
          -1.697786e-04 -1.226691e-04 -1.020987e-04 -1.754900e-04 -2.633884e-04 -5.250092e-04
          1.132491e-04 -1.810212e-05 -5.603000e-05 8.676911e-06 6.508527e-05 1.439372e-04
          -1.192869e-04 -2.023795e-04 -2.920580e-04 -3.167503e-04 -3.824665e-04 -3.693544e-04
          -4.034673e-04 -4.883975e-04 -3.143518e-04 -1.004409e-04 -2.817629e-04 -2.074540e-04
          -1.841598e-04 -2.053655e-04 -1.689875e-04 -4.777546e-04 -4.190601e-04 -4.049021e-04
          -3.855802e-04 -7.492261e-05 -9.210807e-05 -1.272754e-04 -1.899939e-04 -2.621971e-04
          -2.285384e-04 -2.098278e-04 -1.875041e-04 -2.179075e-04 -2.844449e-04 -3.443763e-04
          -3.827751e-04 -5.544414e-04 -6.240128e-04 3.846732e-05 -3.747864e-04 -4.703155e-04
          -4.214374e-04 -4.587313e-04 -4.724669e-04 -4.351475e-04 -3.887219e-04 -2.333668e-04
          1.321368e-04 1.068370e-04 1.097072e-04 1.209416e-04 1.235093e-04 1.180928e-04
          -9.652822e-05 -3.585276e-04 -4.688110e-04 -5.483235e-04 -5.742927e-04 -5.750916e-04
          -6.061570e-04 -6.402724e-04 -5.894013e-04 -5.080767e-04 -3.627504e-04 -1.716751e-04
          -1.526672e-04 -1.617045e-04 -2.481760e-04 -6.303719e-04 -6.394185e-04 -6.367604e-04
          -6.157943e-04 -2.047827e-04 -1.502700e-04 -1.554613e-04 -1.734789e-04 -2.162290e-04
          -4.041873e-04 -5.609546e-04 -5.632241e-04 -5.706038e-04 -5.759682e-04 -5.586792e-04
          -5.383009e-04 -5.727047e-04 -5.534901e-04 -3.345384e-04 -4.098155e-04 -5.346840e-04
          -5.718967e-04 -5.919874e-04 -5.978232e-04 -5.908567e-04 -5.803514e-04 -5.284330e-04
          1.440603e-04 1.841833e-04 2.122815e-04 1.905271e-04 1.598225e-04 1.023045e-04
          -8.334489e-05 -4.571172e-04 -5.808339e-04 -6.948080e-04 -6.963810e-04 -7.057628e-04
          -7.351006e-04 -7.380017e-04 -7.629875e-04 -7.631438e-04 -4.147323e-04 -1.500655e-04
          -1.335633e-04 -1.351382e-04 -2.981782e-04 -7.284713e-04 -7.794848e-04 -7.839209e-04
          -7.617848e-04 -2.858107e-04 -1.865819e-04 -1.732642e-04 -1.637579e-04 -1.886170e-04
          -5.149664e-04 -7.814082e-04 -7.989041e-04 -7.920783e-04 -7.596717e-04 -6.945418e-04
          -6.376760e-04 -5.874063e-04 -5.131033e-04 -5.669791e-04 -4.338417e-04 -5.777114e-04
          -6.684132e-04 -6.779763e-04 -6.789530e-04 -6.907268e-04 -7.023613e-04 -7.140560e-04
          1.674673e-04 -1.175075e-04 -2.048402e-04 -6.388932e-05 6.256437e-05 2.443278e-04
          -2.448903e-04 -2.948151e-04 -4.501487e-04 -4.763787e-04 -6.144558e-04 -5.842503e-04
          -6.487744e-04 -8.271295e-04 -4.574860e-04 -9.894230e-06 -4.660687e-04 -3.649429e-04
          -3.192489e-04 -3.633710e-04 -2.497708e-04 -8.060079e-04 -6.714494e-04 -6.406744e-04
          -6.046051e-04 -5.342361e-05 -1.119250e-04 -1.889529e-04 -3.231615e-04 -4.705787e-04
          -3.291384e-04 -2.330593e-04 -1.829842e-04 -2.481860e-04 -3.960404e-04 -5.391038e-04
          -6.337752e-04 -1.004545e-03 -1.165506e-03 2.406686e-04 -6.623089e-04 -8.292707e-04
          -7.040632e-04 -7.794894e-04 -8.078556e-04 -7.269017e-04 -6.266815e-04 -2.967880e-04
          -4.502358e-05 1.884447e-04 2.722850e-04 1.552809e-04 4.238539e-05 -1.283396e-04
          9.011129e-05 -1.384849e-04 -1.265289e-04 -2.034694e-04 -1.081756e-04 -1.341788e-04
          -9.637942e-05 3.652781e-05 -2.450281e-04 -5.636346e-04 3.760918e-05 1.784697e-04
          1.593363e-04 1.893147e-04 -2.040130e-05 3.098605e-05 -1.037117e-04 -1.288723e-04
          -1.366677e-04 -1.469802e-04 -2.666518e-05 3.821815e-05 1.406286e-04 2.245821e-04
          -1.358837e-04 -4.171303e-04 -4.669310e-04 -4.153933e-04 -2.861534e-04 -1.354952e-04
          -2.454738e-05 2.793873e-04 4.533231e-04 -5.884636e-04 1.373453e-04 1.348334e-04
          -2.490740e-05 2.126614e-05 4.106993e-05 -2.534913e-05 -1.051185e-04 -3.448921e-04
          -5.516283e-05 -6.806767e-05 -7.618679e-05 -6.967116e-05 -6.050751e-05 -4.291188e-05
          1.237243e-05 1.303239e-04 1.643829e-04 1.939966e-04 1.931886e-04 1.951331e-04
          1.976597e-04 1.935661e-04 2.017783e-04 2.045672e-04 1.161746e-04 5.472137e-05
          5.130272e-05 5.147453e-05 9.317235e-05 1.915730e-04 2.052559e-04 2.066847e-04
          2.017652e-04 9.238090e-05 6.754521e-05 6.329921e-05 5.943202e-05 6.338361e-05
          1.437277e-04 2.084640e-04 2.128322e-04 2.105970e-04 2.008003e-04 1.821464e-04
          1.661756e-04 1.512763e-04 1.327456e-04 1.617134e-04 1.221034e-04 1.595073e-04
          1.848601e-04 1.868702e-04 1.870163e-04 1.906012e-04 1.944975e-04 2.002605e-04
          -7.824195e-06 -5.169913e-05 -7.237884e-05 -5.076638e-05 -2.706678e-05 1.102314e-05
          4.465453e-05 2.029400e-04 2.599847e-04 3.280013e-04 3.201071e-04 3.183932e-04
          2.779324e-04 2.337662e-04 2.735010e-04 3.121039e-04 1.108098e-04 -2.418989e-06
          -6.041007e-06 -8.435683e-06 7.821294e-05 2.270243e-04 2.593643e-04 2.638539e-04
          2.567430e-04 8.388404e-05 3.279810e-05 1.984952e-05 3.616600e-06 2.032427e-06
          1.659650e-04 2.979763e-04 3.104497e-04 3.019875e-04 2.758768e-04 2.357165e-04
          2.012430e-04 1.448474e-04 9.724798e-05 2.579750e-04 1.699725e-04 2.480937e-04
          3.036576e-04 3.016156e-04 2.989516e-04 3.105934e-04 3.238840e-04 3.494483e-04
          7.586349e-06 1.634520e-04 2.136353e-04 1.351112e-04 6.154260e-05 -4.970839e-05
          1.619643e-04 1.069508e-04 1.886816e-04 2.115091e-04 2.892932e-04 2.601044e-04
          2.241939e-04 2.777316e-04 7.368998e-05 -1.633146e-04 1.225889e-04 1.023640e-04
          8.017887e-05 1.043045e-04 2.426025e-05 2.617577e-04 1.795452e-04 1.622584e-04
          1.459149e-04 -8.665716e-05 -4.282816e-05 -2.062574e-07 7.220905e-05 1.471969e-04
          3.126933e-05 -5.287717e-05 -8.144858e-05 -4.544885e-05 3.997814e-05 1.287170e-04
          1.872110e-04 3.885760e-04 4.839353e-04 -2.514792e-04 3.181871e-04 4.226921e-04
          3.470131e-04 3.856173e-04 3.995514e-04 3.538835e-04 2.980074e-04 1.094370e-04
          9.547029e-05 -1.271677e-05 -5.122969e-05 1.879295e-06 5.169373e-05 1.236502e-04
          3.063765e-07 7.368017e-05 8.280052e-05 1.410437e-04 1.016272e-04 1.026605e-04
          2.455795e-05 -7.390002e-05 5.170174e-05 1.989341e-04 -8.247583e-05 -1.511797e-04
          -1.426986e-04 -1.556242e-04 -5.637774e-05 -7.702876e-05 -1.849669e-05 -7.254724e-06
          -3.960688e-06 -6.147351e-06 -6.252977e-05 -9.244322e-05 -1.396031e-04 -1.778738e-04
          -7.286039e-06 1.262475e-04 1.496466e-04 1.263523e-04 6.927059e-05 3.688452e-06
          -4.685641e-05 -1.889932e-04 -2.696453e-04 2.258425e-04 -4.121940e-05 -7.061394e-06
          6.927758e-05 4.790149e-05 3.791022e-05 6.742481e-05 1.030944e-04 2.022896e-04
          3.817126e-05 1.903241e-04 2.440918e-04 1.672323e-04 9.239343e-05 -2.372743e-05
          1.087619e-04 -5.710218e-05 -2.849282e-05 -5.068781e-05 1.704603e-05 -8.862760e-06
          -3.273118e-05 2.497944e-05 -1.636137e-04 -3.749855e-04 -9.073405e-06 5.661960e-05
          4.198296e-05 6.273684e-05 -6.096767e-05 1.523161e-05 -7.331089e-05 -9.007096e-05
          -9.760541e-05 -1.540556e-04 -8.341415e-05 -4.108078e-05 2.660713e-05 8.584272e-05
          -1.214228e-04 -2.811643e-04 -3.121955e-04 -2.780592e-04 -1.920695e-04 -9.295367e-05
          -2.258471e-05 1.733447e-04 2.817282e-04 -3.968902e-04 1.353368e-04 1.734682e-04
          7.598929e-05 1.073854e-04 1.197502e-04 7.550767e-05 2.217976e-05 -1.468135e-04
          4.080760e-05 -1.623527e-05 -3.605851e-05 -8.010638e-06 1.845846e-05 5.704937e-05
          -1.099213e-05 2.257493e-05 2.018300e-05 4.303523e-05 2.071490e-05 2.354698e-05
          -5.026887e-06 -4.937441e-05 1.871300e-05 9.809650e-05 -4.308436e-05 -7.220454e-05
          -6.723125e-05 -7.442570e-05 -2.608767e-05 -4.948962e-05 -1.852705e-05 -1.250458e-05
          -1.003274e-05 3.095889e-06 -2.427956e-05 -4.002261e-05 -6.518341e-05 -8.652730e-05
          -4.446394e-06 5.945842e-05 7.151405e-05 5.900439e-05 2.864095e-05 -5.571926e-06
          -3.123232e-05 -1.060353e-04 -1.474465e-04 1.140919e-04 -4.155719e-05 -3.498287e-05
          2.774888e-06 -9.053361e-06 -1.422018e-05 1.568196e-06 2.071621e-05 7.640234e-05
          4.613740e-05 1.144717e-04 1.387589e-04 1.042568e-04 7.018702e-05 1.632356e-05
          6.548804e-05 -2.899729e-05 -1.422645e-05 -1.838367e-05 1.329993e-05 5.886706e-07
          -1.510823e-05 8.401556e-06 -7.627830e-05 -1.715086e-04 -1.867911e-05 -1.382695e-06
          -9.050883e-06 5.739823e-07 -5.036719e-05 2.600975e-06 -3.657909e-05 -4.419539e-05
          -4.861990e-05 -9.520835e-05 -6.655199e-05 -4.746651e-05 -1.649463e-05 1.215873e-05
          -6.897929e-05 -1.303016e-04 -1.434160e-04 -1.280036e-04 -8.897024e-05 -4.388488e-05
          -1.253197e-05 7.420521e-05 1.198132e-04 -1.891168e-04 5.931958e-05 8.376218e-05
          4.090273e-05 5.512942e-05 6.065241e-05 4.064667e-05 1.645376e-05 -6.221672e-05
          1.010673e-04 1.617736e-04 1.863755e-04 1.555289e-04 1.222152e-04 6.608789e-05
          4.838369e-05 -1.300348e-04 -1.444835e-04 -1.666849e-04 -1.416893e-04 -1.555443e-04
          -1.856234e-04 -1.751027e-04 -2.449416e-04 -3.165710e-04 -1.307110e-04 -6.658428e-05
          -6.927168e-05 -6.214860e-05 -1.342304e-04 -1.791076e-04 -2.204021e-04 -2.273096e-04
          -2.263715e-04 -1.684014e-04 -1.265829e-04 -1.090526e-04 -8.308775e-05 -6.559787e-05
          -1.922529e-04 -2.913384e-04 -3.044790e-04 -2.912025e-04 -2.536970e-04 -2.038769e-04
          -1.671937e-04 -9.181896e-05 -4.288889e-05 -2.884813e-04 -5.535769e-05 -6.063282e-05
          -1.128121e-04 -1.042067e-04 -1.005005e-04 -1.184684e-04 -1.397361e-04 -2.050488e-04
          2.340263e-05 -1.435015e-05 -2.916431e-05 -9.941842e-06 8.846720e-06 3.723017e-05
          1.192266e-05 5.954726e-05 7.148046e-05 9.951900e-05 8.711102e-05 9.054579e-05
          8.164616e-05 5.945392e-05 1.027800e-04 1.489860e-04 1.734648e-05 -4.009570e-05
          -3.985909e-05 -4.377117e-05 6.634382e-06 5.786742e-05 8.272060e-05 8.667924e-05
          8.471251e-05 2.078313e-05 -9.144397e-06 -1.975898e-05 -3.494421e-05 -4.287802e-05
          5.203534e-05 1.282583e-04 1.379962e-04 1.299601e-04 1.085643e-04 8.111935e-05
          5.941542e-05 9.111863e-06 -2.625162e-05 1.269256e-04 1.924851e-05 4.088074e-05
          7.359451e-05 6.789012e-05 6.503333e-05 7.566916e-05 8.810931e-05 1.212008e-04
          -1.108867e-04 -1.070413e-04 -1.147487e-04 -1.152700e-04 -1.092487e-04 -9.202093e-05
          6.357083e-05 2.854748e-04 3.672732e-04 4.302321e-04 4.431840e-04 4.484166e-04
          4.865395e-04 5.144903e-04 4.952205e-04 4.530745e-04 2.949332e-04 1.319383e-04
          1.179778e-04 1.229478e-04 2.059467e-04 5.082809e-04 5.259218e-04 5.256484e-04
          5.094072e-04 1.818134e-04 1.301125e-04 1.297218e-04 1.371133e-04 1.654342e-04
          3.406956e-04 4.856074e-04 4.909805e-04 4.931541e-04 4.878997e-04 4.632574e-04
          4.393621e-04 4.458019e-04 4.177474e-04 3.110826e-04 3.038231e-04 3.946627e-04
          4.342466e-04 4.467899e-04 4.503021e-04 4.496893e-04 4.472440e-04 4.252355e-04
          -1.491364e-04 -1.006032e-05 2.848675e-05 -3.956775e-05 -9.742227e-05 -1.758166e-04
          1.371077e-04 2.730916e-04 3.832759e-04 4.204739e-04 4.920408e-04 4.813606e-04
          5.377554e-04 6.410805e-04 4.545543e-04 2.196286e-04 3.714301e-04 2.526217e-04
          2.246142e-04 2.480055e-04 2.294167e-04 6.291470e-04 5.725349e-04 5.576452e-04
          5.332205e-04 1.256030e-04 1.312932e-04 1.681866e-04 2.360839e-04 3.192443e-04
          3.268353e-04 3.428988e-04 3.208883e-04 3.532599e-04 4.216813e-04 4.787559e-04
          5.134300e-04 6.957393e-04 7.615439e-04 3.497079e-05 4.566806e-04 5.729040e-04
          5.301167e-04 5.721399e-04 5.875567e-04 5.484170e-04 4.992344e-04 3.322599e-04
          -2.158078e-05 -1.370938e-04 -1.818101e-04 -1.233503e-04 -6.472005e-05 2.687911e-05
          -2.827927e-05 1.649784e-04 1.856600e-04 2.436535e-04 1.999380e-04 2.149645e-04
          2.095547e-04 1.526489e-04 2.871328e-04 4.327476e-04 8.247829e-05 -3.882080e-05
          -3.354316e-05 -4.698544e-05 8.432396e-05 1.537385e-04 2.267289e-04 2.392293e-04
          2.380604e-04 1.404446e-04 6.380637e-05 3.121212e-05 -1.771195e-05 -5.096515e-05
          1.843844e-04 3.703867e-04 3.968650e-04 3.718177e-04 3.052990e-04 2.215286e-04
          1.582094e-04 8.483057e-06 -8.707647e-05 4.003161e-04 3.256771e-05 6.222056e-05
          1.550372e-04 1.360923e-04 1.273577e-04 1.603975e-04 1.995424e-04 3.129059e-04
          -5.387846e-05 2.035136e-04 2.903438e-04 1.622350e-04 4.123988e-05 -1.402002e-04
          1.639195e-04 2.501771e-06 6.663281e-05 3.021000e-05 1.441628e-04 1.138324e-04
          1.492752e-04 2.940756e-04 -2.538213e-05 -3.961757e-04 1.623180e-04 2.148538e-04
          1.854895e-04 2.212462e-04 4.253342e-05 2.811634e-04 1.427251e-04 1.148230e-04
          9.640511e-05 -1.144942e-04 -1.474842e-05 5.617116e-05 1.725329e-04 2.820086e-04
          -4.048836e-06 -2.213695e-04 -2.718546e-04 -2.141643e-04 -7.442979e-05 7.848498e-05
          1.869721e-04 5.200337e-04 6.917228e-04 -5.020011e-04 3.198575e-04 3.848544e-04
          2.335526e-04 2.911263e-04 3.140597e-04 2.406933e-04 1.513798e-04 -1.289754e-04
          6.203527e-05 7.057153e-05 7.369563e-05 6.946717e-05 6.411381e-05 5.306323e-05
          3.355549e-05 -2.139536e-05 -1.890195e-05 -1.132393e-05 -5.624686e-06 -1.061292e-05
          -3.142231e-05 -3.943100e-05 -4.967707e-05 -5.954121e-05 -4.804360e-05 -5.397752e-05
          -5.551747e-05 -5.417711e-05 -5.827671e-05 -4.265556e-05 -4.843893e-05 -4.961972e-05
          -5.068367e-05 -6.784263e-05 -6.604566e-05 -6.345991e-05 -5.923317e-05 -5.430661e-05
          -5.731504e-05 -5.825581e-05 -5.898194e-05 -5.701360e-05 -5.082522e-05 -4.273341e-05
          -3.766434e-05 -2.944600e-05 -2.642197e-05 -6.175705e-05 -6.851070e-06 6.546269e-06
          7.964969e-07 2.211480e-06 2.428474e-06 -4.071418e-07 -3.951214e-06 -1.803192e-05
          8.766294e-05 1.119844e-04 1.178221e-04 1.053523e-04 9.297048e-05 7.113400e-05
          1.008482e-04 8.060320e-05 1.262133e-04 1.719453e-04 1.924762e-04 1.782406e-04
          1.215616e-04 1.004381e-04 6.175174e-05 1.649994e-05 3.268620e-06 -5.826370e-05
          -6.646217e-05 -6.063377e-05 -4.508437e-05 8.948538e-05 7.870406e-05 7.549881e-05
          6.752596e-05 -7.885911e-05 -8.944563e-05 -8.286840e-05 -6.927887e-05 -4.785773e-05
          -4.455432e-06 3.442109e-05 3.304602e-05 3.945570e-05 5.416587e-05 6.633185e-05
          7.019613e-05 9.820664e-05 1.011949e-04 -2.707701e-05 1.300806e-04 2.053247e-04
          2.062528e-04 2.150758e-04 2.170235e-04 2.088528e-04 1.983642e-04 1.510139e-04
          -3.788530e-05 -3.045346e-05 -3.899301e-05 -4.190876e-05 -3.816566e-05 -2.652085e-05
          1.427998e-04 3.705585e-04 4.918611e-04 6.001939e-04 6.238393e-04 6.189398e-04
          6.073019e-04 6.083569e-04 5.761574e-04 5.176664e-04 3.025575e-04 7.486327e-05
          5.486041e-05 6.281534e-05 1.754713e-04 5.932236e-04 6.118569e-04 6.107743e-04
          5.880587e-04 1.314179e-04 6.148945e-05 6.193149e-05 7.350980e-05 1.142924e-04
          3.552150e-04 5.556350e-04 5.633933e-04 5.673676e-04 5.650472e-04 5.394694e-04
          5.103046e-04 5.189899e-04 4.806504e-04 3.380470e-04 4.112963e-04 5.677001e-04
          6.203105e-04 6.371788e-04 6.410757e-04 6.383050e-04 6.328161e-04 5.875138e-04
          -9.104660e-05 -1.063738e-04 -1.203131e-04 -1.121420e-04 -9.803123e-05 -6.943776e-05
          6.242641e-05 2.981524e-04 3.830844e-04 4.575353e-04 4.638280e-04 4.662905e-04
          4.741939e-04 4.741451e-04 4.757067e-04 4.602952e-04 2.648367e-04 1.022202e-04
          9.071228e-05 9.346230e-05 1.889094e-04 4.668654e-04 4.927063e-04 4.943558e-04
          4.798229e-04 1.737923e-04 1.158242e-04 1.101043e-04 1.086839e-04 1.281477e-04
          3.209595e-04 4.786271e-04 4.874352e-04 4.855396e-04 4.709804e-04 4.364394e-04
          4.046210e-04 3.867922e-04 3.477343e-04 3.374887e-04 2.987032e-04 3.984479e-04