<?xml version="1.0"?>
<VTKFile type="RectilinearGrid" version="0.1" byte_order="LittleEndian">
  <RectilinearGrid WholeExtent="0 47 0 47 0 47">
    <Piece Extent="0 47 0 47 0 47">
      <PointData Scalars="concentration">
        <DataArray type="Float32" Name="concentration" NumberOfComponents="1" format="ascii">
          5.859338e-05 8.851089e-05 9.848882e-05 8.589190e-05 7.413932e-05 5.613550e-05
          6.559102e-05 -3.025613e-05 -3.480875e-05 -3.768385e-05 -2.396399e-05 -1.159050e-05
          8.622155e-05 1.651012e-04 1.371980e-04 9.041531e-05 5.990808e-05 -3.327405e-05
          -4.633822e-05 -4.157214e-05 -2.480996e-05 1.640167e-04 1.620022e-04 1.592538e-04
          1.486871e-04 -5.069788e-05 -6.527069e-05 -5.659350e-05 -3.894644e-05 -9.769494e-06
          5.562710e-05 1.153802e-04 1.155573e-04 1.218795e-04 1.350038e-04 1.469963e-04
          1.544914e-04 1.863335e-04 1.803358e-04 -2.647712e-05 -5.278868e-06 -4.966461e-06
          -1.839375e-05 -9.842948e-06 -5.052161e-06 -1.243018e-05 -2.194385e-05 -5.276623e-05
          8.326586e-05 1.107180e-04 1.200286e-04 1.089040e-04 9.806356e-05 8.050867e-05
          7.484836e-05 -4.318309e-05 -5.075153e-05 -5.199065e-05 -3.901663e-05 -2.577034e-05
          7.571545e-05 1.562960e-04 1.326614e-04 9.014156e-05 4.520469e-05 -5.826271e-05
          -7.207821e-05 -6.754669e-05 -4.606568e-05 1.547994e-04 1.549937e-04 1.524622e-04
          1.413203e-04 -7.205828e-05 -8.979957e-05 -8.165217e-05 -6.468857e-05 -3.492053e-05
          4.238281e-05 1.124066e-04 1.138148e-04 1.195416e-04 1.314995e-04 1.426472e-04
          1.493214e-04 1.766056e-04 1.661221e-04 -3.434965e-05 -2.164286e-05 -2.142998e-05
          -3.383504e-05 -2.592238e-05 -2.128331e-05 -2.792241e-05 -3.663089e-05 -6.555473e-05
          4.975745e-05 2.671783e-04 3.421548e-04 2.358561e-04 1.341129e-04 -2.070837e-05
          1.804272e-04 -7.832913e-05 -4.863526e-05 -8.633299e-05 9.073884e-06 -3.034638e-06
          1.073471e-04 2.832805e-04 2.454185e-05 -2.861927e-04 1.183337e-04 9.068773e-05
          5.832480e-05 8.864248e-05 -3.940092e-05 2.731019e-04 1.664481e-04 1.432225e-04
          1.218958e-04 -1.771636e-04 -1.098304e-04 -4.920506e-05 5.231145e-05 1.568549e-04
          -1.628903e-05 -1.396121e-04 -1.772194e-04 -1.290602e-04 -1.244364e-05 1.164036e-04
          2.074650e-04 4.816850e-04 6.059730e-04 -4.547581e-04 1.771927e-04 2.130682e-04
          8.229325e-05 1.307465e-04 1.516608e-04 9.063341e-05 1.606583e-05 -2.175535e-04
          1.070570e-04 -6.539147e-05 -1.255649e-04 -3.760246e-05 4.582372e-05 1.700840e-04
          -4.311237e-05 1.843593e-05 -1.676915e-05 2.777500e-05 -4.460257e-05 -1.421710e-05
          2.341524e-05 -3.155373e-05 1.865573e-04 4.266309e-04 -5.684239e-05 -2.041115e-04
          -1.948275e-04 -2.172648e-04 -5.110499e-05 -2.576895e-05 8.048327e-05 9.933770e-05
          1.019439e-04 4.091290e-05 -5.707418e-05 -1.043415e-04 -1.779432e-04 -2.328401e-04
          7.281704e-05 3.158066e-04 3.559902e-04 3.173432e-04 2.210273e-04 1.110050e-04
          3.045063e-05 -1.995765e-04 -3.418002e-04 3.925103e-04 -1.973285e-04 -2.201240e-04
          -1.078056e-04 -1.428656e-04 -1.563426e-04 -1.065549e-04 -4.674465e-05 1.352817e-04
          1.184482e-05 1.634731e-04 2.152105e-04 1.409776e-04 7.053047e-05 -3.569299e-05
          1.197613e-04 -3.401480e-05 -8.469779e-06 -3.341660e-05 3.327889e-05 2.462144e-05
          1.004503e-04 2.220612e-04 4.018851e-05 -1.784555e-04 1.041611e-04 8.591719e-05
          6.360151e-05 8.482560e-05 -3.476182e-06 2.152301e-04 1.409160e-04 1.247500e-04
          1.098673e-04 -9.911889e-05 -5.246750e-05 -1.032600e-05 6.029044e-05 1.330176e-04
          1.222447e-05 -7.426976e-05 -1.008119e-04 -6.720261e-05 1.373796e-05 1.020898e-04
          1.644412e-04 3.567673e-04 4.444812e-04 -2.950721e-04 1.450112e-04 1.728050e-04
          8.346517e-05 1.178270e-04 1.325658e-04 8.994388e-05 3.792830e-05 -1.250931e-04
          -2.192655e-05 1.323875e-04 1.847282e-04 1.088805e-04 3.750397e-05 -6.880739e-05
          1.066988e-04 -1.614759e-05 1.337193e-05 -1.371080e-05 5.370342e-05 4.398560e-05
          1.151387e-04 2.343300e-04 4.747303e-05 -1.760351e-04 1.244540e-04 1.197614e-04
          9.850608e-05 1.199534e-04 2.582654e-05 2.281250e-04 1.512096e-04 1.347788e-04
          1.207315e-04 -6.929554e-05 -1.866274e-05 2.405691e-05 9.528552e-05 1.669816e-04
          3.104374e-05 -6.856253e-05 -9.664719e-05 -6.239071e-05 1.976176e-05 1.088184e-04
          1.719431e-04 3.696183e-04 4.629395e-04 -2.824274e-04 1.667239e-04 1.944018e-04
          1.040919e-04 1.392012e-04 1.541459e-04 1.106987e-04 5.780406e-05 -1.070572e-04
          5.357964e-05 -1.693992e-04 -2.477255e-04 -1.349986e-04 -2.674231e-05 1.375036e-04
          -9.732225e-05 6.562076e-05 2.825584e-05 8.064980e-05 -1.426825e-05 2.115584e-05
          4.530932e-05 -4.338343e-05 2.338059e-04 5.428591e-04 -3.928913e-05 -1.839978e-04
          -1.673520e-04 -1.968550e-04 2.630975e-06 -3.409030e-05 9.848482e-05 1.228802e-04
          1.299431e-04 1.279695e-04 1.231181e-05 -4.923626e-05 -1.464149e-04 -2.249979e-04
          1.263525e-04 4.019709e-04 4.506866e-04 4.008649e-04 2.762251e-04 1.329925e-04
          2.903445e-05 -2.631450e-04 -4.343014e-04 5.409080e-04 -2.108013e-04 -2.424697e-04
          -9.690687e-05 -1.423194e-04 -1.602052e-04 -9.608467e-05 -1.869590e-05 2.192677e-04
          -1.601619e-05 3.050580e-04 4.152610e-04 2.567765e-04 1.062865e-04 -1.199557e-04
          2.206926e-04 -6.708383e-05 -1.141213e-05 -7.026079e-05 6.967496e-05 4.406652e-05
          1.602853e-04 3.880476e-04 -9.839198e-07 -4.606299e-04 1.960475e-04 2.179430e-04
          1.764157e-04 2.206865e-04 9.943847e-06 3.741895e-04 2.090590e-04 1.746435e-04
          1.482544e-04 -1.866163e-04 -7.163701e-05 1.738224e-05 1.645668e-04 3.085767e-04
          -7.834034e-06 -2.430194e-04 -3.028040e-04 -2.314046e-04 -5.854635e-05 1.321230e-04
          2.677572e-04 6.790119e-04 8.798455e-04 -6.476595e-04 3.161610e-04 3.714845e-04
          1.782849e-04 2.494622e-04 2.793916e-04 1.887219e-04 7.840431e-05 -2.654541e-04
          7.689080e-05 4.554048e-05 3.389336e-05 5.164553e-05 6.858874e-05 9.351793e-05
          3.950211e-05 -2.029338e-06 -1.043707e-05 6.528733e-06 -4.769450e-06 1.148563e-05
          8.264190e-05 1.159131e-04 1.610599e-04 1.997277e-04 2.710999e-05 -8.717325e-05
          -9.389547e-05 -9.708901e-05 -3.221803e-05 1.158777e-04 1.466334e-04 1.503065e-04
          1.432369e-04 -2.421384e-05 -6.563589e-05 -7.391570e-05 -8.377506e-05 -7.923982e-05
          6.433296e-05 1.840424e-04 1.964869e-04 1.893432e-04 1.693944e-04 1.440207e-04
          1.240518e-04 7.664668e-05 2.875814e-05 1.065958e-04 -4.747779e-05 -4.616387e-05
          -1.960874e-05 -2.380979e-05 -2.461198e-05 -1.483505e-05 -3.551646e-06 2.780208e-05
          8.050125e-05 1.087057e-04 1.176271e-04 1.055171e-04 9.361556e-05 7.443070e-05
          8.058887e-05 -1.313710e-05 -8.104171e-06 8.919977e-07 1.615178e-05 2.325330e-05
          9.075851e-05 1.501795e-04 1.211784e-04 7.570790e-05 4.060409e-05 -5.344351e-05
          -6.634455e-05 -6.124385e-05 -4.183334e-05 1.465103e-04 1.436254e-04 1.407157e-04
          1.301534e-04 -7.038195e-05 -8.604468e-05 -7.783570e-05 -6.103030e-05 -3.247958e-05
          3.612624e-05 9.831155e-05 9.877148e-05 1.050064e-04 1.181965e-04 1.302185e-04
          1.367127e-04 1.662343e-04 1.597368e-04 -3.204200e-05 1.633438e-05 3.356410e-05
          2.345692e-05 3.202336e-05 3.623266e-05 2.883256e-05 1.929718e-05 -1.525052e-05
          8.910762e-05 1.239911e-04 1.350269e-04 1.192118e-04 1.034084e-04 7.768279e-05
          9.069447e-05 -4.701623e-06 7.575853e-06 2.151189e-05 4.089639e-05 4.303874e-05
          8.806690e-05 1.365268e-04 9.698482e-05 4.185920e-05 2.834091e-05 -5.686318e-05
          -6.980932e-05 -6.348365e-05 -5.110712e-05 1.310304e-04 1.224594e-04 1.186187e-04
          1.081876e-04 -8.514227e-05 -9.632437e-05 -8.631493e-05 -6.681652e-05 -3.668150e-05
          1.734627e-05 6.767950e-05 6.637683e-05 7.427418e-05 9.198944e-05 1.092405e-04
          1.189885e-04 1.574682e-04 1.577007e-04 -5.589904e-05 3.737407e-05 6.576272e-05
          5.233012e-05 6.235803e-05 6.675268e-05 5.707963e-05 4.483264e-05 -1.332234e-07
          9.245447e-05 9.651727e-05 9.671398e-05 9.585585e-05 9.423115e-05 8.965241e-05
          7.397404e-05 1.517109e-05 2.785030e-05 5.266926e-05 5.962521e-05 6.168227e-05
          8.130028e-05 9.893449e-05 9.484368e-05 8.283769e-05 7.319905e-06 -7.860930e-05
          -8.737295e-05 -8.499272e-05 -5.198514e-05 9.368400e-05 1.000651e-04 9.944839e-05
          9.157108e-05 -6.844204e-05 -9.064187e-05 -8.928718e-05 -8.400137e-05 -6.794849e-05
          1.571968e-05 8.776037e-05 9.199469e-05 9.319514e-05 9.468108e-05 9.371812e-05
          9.008859e-05 8.943505e-05 7.127964e-05 8.282712e-06 2.359710e-05 5.496453e-05
          6.152848e-05 6.500955e-05 6.633002e-05 6.510916e-05 6.319735e-05 4.882398e-05
          9.227052e-05 8.219983e-05 7.769804e-05 8.358682e-05 8.835209e-05 9.318120e-05
          6.258689e-05 1.904168e-05 3.015263e-05 5.796503e-05 5.884215e-05 6.066810e-05
          6.712214e-05 6.948280e-05 8.185443e-05 9.045030e-05 -7.460992e-06 -8.766519e-05
          -9.394365e-05 -9.350604e-05 -5.383012e-05 6.463369e-05 7.720209e-05 7.811612e-05
          7.193854e-05 -6.132168e-05 -8.679808e-05 -8.944578e-05 -9.086865e-05 -8.226535e-05
          8.601042e-06 8.520599e-05 9.168198e-05 8.977411e-05 8.398444e-05 7.524177e-05
          6.613501e-05 4.771518e-05 2.242529e-05 3.174421e-05 1.168402e-05 4.188722e-05
          5.660654e-05 5.677750e-05 5.655809e-05 5.922305e-05 6.208301e-05 6.240325e-05
          5.895561e-05 1.172045e-04 1.367743e-04 1.081079e-04 7.995137e-05 3.550192e-05
          8.206800e-05 -1.311630e-06 1.928137e-05 2.690388e-05 5.600570e-05 4.788225e-05
          5.139953e-05 8.333109e-05 1.103167e-05 -7.474313e-05 1.268647e-05 -1.590962e-05
          -2.656768e-05 -1.734729e-05 -4.172595e-05 7.662326e-05 4.829160e-05 4.179725e-05
          3.409659e-05 -8.565588e-05 -7.379692e-05 -5.762025e-05 -2.955581e-05 1.902403e-06
          -2.216829e-05 -3.631810e-05 -4.524046e-05 -3.193650e-05 2.030177e-07 3.506864e-05
          5.803097e-05 1.298895e-04 1.587418e-04 -1.285894e-04 7.453828e-05 1.090331e-04
          7.837418e-05 9.227922e-05 9.759061e-05 8.071154e-05 6.002367e-05 -1.060755e-05
          5.269812e-05 -1.231033e-05 -3.488501e-05 -2.552208e-06 2.736901e-05 7.089980e-05
          -1.143961e-05 1.821010e-05 1.333371e-05 3.829855e-05 1.262316e-05 1.638917e-05
          -1.363313e-05 -6.240669e-05 1.578366e-05 1.070360e-04 -5.463342e-05 -8.859237e-05
          -8.302234e-05 -9.115513e-05 -3.626804e-05 -6.260358e-05 -2.709841e-05 -2.031614e-05
          -1.756114e-05 -2.886304e-06 -3.425167e-05 -5.219897e-05 -8.073245e-05 -1.050585e-04
          -1.096588e-05 6.241589e-05 7.627755e-05 6.206618e-05 2.742068e-05 -1.127725e-05
          -4.018462e-05 -1.258745e-04 -1.736960e-04 1.240234e-04 -5.573941e-05 -5.014003e-05
          -7.711425e-06 -2.137596e-05 -2.738706e-05 -9.243821e-06 1.265380e-05 7.657841e-05
          1.790116e-06 1.055331e-04 1.415892e-04 8.935775e-05 3.879408e-05 -3.841730e-05
          6.676349e-05 -2.035394e-05 2.919609e-06 -1.201226e-05 3.402060e-05 1.687178e-05
          2.821355e-06 4.324414e-05 -8.648114e-05 -2.322915e-04 1.698263e-05 6.239562e-05
          5.258985e-05 6.692275e-05 -1.634762e-05 3.693346e-05 -2.296391e-05 -3.445978e-05
          -3.968045e-05 -7.906621e-05 -3.150927e-05 -2.836497e-06 4.329301e-05 8.340572e-05
          -5.737214e-05 -1.663107e-04 -1.877695e-04 -1.643960e-04 -1.063911e-04 -4.050074e-05
          6.308122e-06 1.408874e-04 2.153858e-04 -2.475827e-04 1.107537e-04 1.378609e-04
          7.318358e-05 9.503752e-05 1.035094e-04 7.353915e-05 3.724740e-05 -7.730756e-05
          3.302396e-05 -2.157218e-05 -4.080233e-05 -1.366260e-05 1.166734e-05 4.906432e-05
          -1.383552e-05 2.214928e-05 1.929732e-05 3.978649e-05 1.807887e-05 2.138353e-05
          -3.006799e-06 -4.364873e-05 2.157912e-05 9.763423e-05 -3.667971e-05 -6.341068e-05
          -5.859592e-05 -6.534206e-05 -1.953020e-05 -4.354609e-05 -1.368564e-05 -8.027419e-06
          -5.583785e-06 9.032043e-06 -1.704922e-05 -3.211313e-05 -5.623053e-05 -7.699789e-05
          6.554903e-07 6.091777e-05 7.237752e-05 6.043934e-05 3.118031e-05 -1.909025e-06
          -2.659879e-05 -9.801035e-05 -1.374873e-04 1.129096e-04 -4.000791e-05 -3.558248e-05
          4.883835e-07 -1.082880e-05 -1.579322e-05 -5.474560e-07 1.792984e-05 7.202046e-05
          3.924974e-05 -5.752081e-06 -2.287524e-05 -2.763451e-08 2.169437e-05 5.430931e-05
          1.281407e-05 5.059298e-05 5.904134e-05 8.848782e-05 7.299457e-05 7.724608e-05
          6.798038e-05 4.240744e-05 9.508438e-05 1.524501e-04 2.376813e-06 -5.938765e-05
          -5.907656e-05 -6.370716e-05 -7.803513e-06 4.069753e-05 6.969970e-05 7.428832e-05
          7.271266e-05 1.001112e-05 -2.312409e-05 -3.554639e-05 -5.403186e-05 -6.461708e-05
          4.110079e-05 1.258920e-04 1.373018e-04 1.276426e-04 1.025472e-04 7.157165e-05
          4.715713e-05 -1.302502e-05 -5.421257e-05 1.307074e-04 1.325438e-06 2.111720e-05
          5.728582e-05 4.985876e-05 4.647115e-05 5.900055e-05 7.407710e-05 1.144632e-04
          -1.321983e-05 2.498158e-04 3.388799e-04 2.080965e-04 8.364503e-05 -1.036726e-04
          1.926664e-04 -4.154489e-06 6.279151e-05 3.286895e-05 1.509764e-04 1.199859e-04
          1.592172e-04 3.104226e-04 -1.568253e-05 -3.956431e-04 1.523193e-04 1.819081e-04
          1.491313e-04 1.864808e-04 1.273017e-05 2.952913e-04 1.559679e-04 1.272402e-04
          1.063676e-04 -1.523788e-04 -5.631411e-05 1.639747e-05 1.362721e-04 2.522015e-04
          -1.615579e-05 -2.175498e-04 -2.676237e-04 -2.085904e-04 -6.549085e-05 9.125619e-05
          2.012362e-04 5.400131e-04 7.094321e-04 -5.235626e-04 3.216884e-04 3.964794e-04
          2.431106e-04 3.023370e-04 3.261279e-04 2.509055e-04 1.596045e-04 -1.305731e-04
          6.893089e-05 -5.659704e-05 -1.020472e-04 -3.867193e-05 2.174932e-05 1.125124e-04
          -1.627712e-05 7.748431e-05 7.536171e-05 1.275939e-04 7.860819e-05 9.356669e-05
          8.148434e-05 1.678086e-05 1.685518e-04 3.374367e-04 -2.207528e-05 -1.352673e-04
          -1.288805e-04 -1.439851e-04 -1.611725e-05 1.744286e-05 9.349781e-05 1.068218e-04
          1.078173e-04 4.570578e-05 -2.897990e-05 -6.365629e-05 -1.172828e-04 -1.563313e-04
          7.552265e-05 2.592461e-04 2.882236e-04 2.606544e-04 1.909871e-04 1.089524e-04
          4.717264e-05 -1.186790e-04 -2.212767e-04 3.190928e-04 -6.926202e-05 -5.512659e-05
          3.410025e-05 1.031048e-05 2.201846e-07 3.572583e-05 7.854918e-05 2.028746e-04
          8.369949e-05 6.773956e-05 6.034579e-05 6.901532e-05 7.695439e-05 8.727350e-05
          6.516286e-05 5.037437e-05 7.002214e-05 1.066967e-04 1.064449e-04 1.076240e-04
          1.065013e-04 1.014712e-04 1.187296e-04 1.323499e-04 1.087958e-05 -8.073692e-05
          -8.723595e-05 -8.713224e-05 -3.705053e-05 9.581949e-05 1.123205e-04 1.138063e-04
          1.069269e-04 -4.330801e-05 -7.462592e-05 -7.901568e-05 -8.289134e-05 -7.502321e-05
          3.423125e-05 1.254116e-04 1.333345e-04 1.303109e-04 1.209032e-04 1.066444e-04
          9.290842e-05 6.738817e-05 3.683842e-05 6.977066e-05 3.888994e-05 7.948374e-05
          1.017683e-04 1.017395e-04 1.010562e-04 1.052418e-04 1.100148e-04 1.138916e-04
          9.640155e-05 1.485285e-04 1.648813e-04 1.394989e-04 1.146789e-04 7.457023e-05
          1.166360e-04 3.136551e-05 6.435854e-05 9.160804e-05 1.217026e-04 1.138514e-04
          1.168590e-04 1.472430e-04 8.087329e-05 -1.661889e-06 2.632735e-05 -5.037033e-05
          -6.474811e-05 -5.521551e-05 -5.420091e-05 1.375060e-04 1.166675e-04 1.107937e-04
          9.915166e-05 -1.028438e-04 -1.067241e-04 -9.229912e-05 -6.530232e-05 -2.851509e-05
          2.905447e-06 3.524059e-05 3.002000e-05 4.225626e-05 7.045126e-05 9.869305e-05
          1.150925e-04 1.766970e-04 1.912290e-04 -8.970352e-05 1.042782e-04 1.617091e-04
          1.421075e-04 1.567310e-04 1.618172e-04 1.465017e-04 1.275924e-04 5.636878e-05
          1.650345e-04 -1.087893e-04 -2.049818e-04 -6.755905e-05 6.246266e-05 2.550548e-04
          -6.321132e-05 9.088576e-05 6.314801e-05 1.564967e-04 4.589712e-05 7.627950e-05
          3.411290e-05 -1.181669e-04 2.167160e-04 5.959050e-04 -1.290183e-04 -3.171567e-04
          -2.979263e-04 -3.326070e-04 -8.254241e-05 -1.142659e-04 4.461551e-05 7.400355e-05
          8.149734e-05 6.035075e-05 -8.425184e-05 -1.598725e-04 -2.787074e-04 -3.733105e-04
          6.886440e-05 4.168510e-04 4.775454e-04 4.170896e-04 2.670691e-04 9.595197e-05
          -3.076685e-05 -3.922957e-04 -6.042199e-04 6.069720e-04 -2.331234e-04 -2.303435e-04
          -4.801317e-05 -1.034760e-04 -1.269447e-04 -4.936691e-05 4.424331e-05 3.216428e-04
          6.670498e-05 3.075711e-04 3.901805e-04 2.706212e-04 1.555846e-04 -2.109455e-05
          2.106089e-04 -4.320132e-05 1.222697e-05 -9.420542e-06 1.001915e-04 7.135593e-05
          1.062174e-04 2.456607e-04 -5.011925e-05 -3.953450e-04 8.628803e-05 9.118288e-05
          5.880390e-05 9.320598e-05 -5.964545e-05 2.295285e-04 1.030574e-04 7.682379e-05
          5.584540e-05 -2.158696e-04 -1.324835e-04 -6.572192e-05 4.520296e-05 1.552894e-04
          -7.042264e-05 -2.365757e-04 -2.805369e-04 -2.264644e-04 -9.452544e-05 5.199629e-05
          1.543021e-04 4.604559e-04 6.089172e-04 -5.288341e-04 2.558822e-04 3.293479e-04
          1.873162e-04 2.410528e-04 2.624528e-04 1.935531e-04 1.096795e-04 -1.597102e-04
          8.594828e-05 7.419304e-05 7.015825e-05 7.691770e-05 8.251493e-05 8.828134e-05
          4.334829e-05 -1.890867e-05 -2.247559e-05 -8.543094e-06 -1.108416e-05 -6.142835e-06
          1.570808e-05 2.642656e-05 4.444952e-05 5.976496e-05 -2.353631e-05 -8.624820e-05
          -9.090993e-05 -9.158110e-05 -6.054735e-05 2.417347e-05 3.672346e-05 3.803651e-05
          3.365420e-05 -6.231015e-05 -8.245454e-05 -8.540141e-05 -8.822654e-05 -8.311371e-05
          -1.034063e-05 5.133409e-05 5.751541e-05 5.492262e-05 4.813216e-05 4.025122e-05
          3.315709e-05 1.255252e-05 -1.076646e-05 1.117092e-05 -3.395275e-05 -2.480645e-05
          -1.461450e-05 -1.617351e-05 -1.671561e-05 -1.315650e-05 -9.156697e-06 -1.423992e-06
          8.078222e-05 3.254549e-05 1.619800e-05 4.191635e-05 6.616124e-05 1.009198e-04
          1.291269e-05 -3.560460e-05 -5.839668e-05 -4.935782e-05 -7.004551e-05 -5.276573e-05
          9.654579e-06 2.866311e-05 9.638988e-05 1.641393e-04 -1.621013e-05 -1.050386e-04
          -1.074778e-04 -1.134228e-04 -5.082563e-05 3.079486e-05 6.744892e-05 7.304045e-05
          6.970829e-05 -2.840788e-05 -6.750865e-05 -8.034600e-05 -9.893828e-05 -1.062811e-04
          2.523014e-05 1.334091e-04 1.479390e-04 1.368495e-04 1.086248e-04 7.651278e-05
          5.291291e-05 -1.591625e-05 -6.895233e-05 1.025753e-04 -1.037915e-04 -1.204855e-04
          -8.965536e-05 -9.921090e-05 -1.021978e-04 -8.750652e-05 -7.000256e-05 -1.704802e-05
          5.377541e-05 2.048735e-04 2.573549e-04 1.838603e-04 1.137226e-04 6.276644e-06
          1.320973e-04 -7.927023e-05 -6.710429e-05 -9.796103e-05 -3.244942e-05 -3.619312e-05
          6.796895e-05 2.081151e-04 3.204872e-05 -1.829394e-04 8.147917e-05 4.440598e-05
          1.977878e-05 4.104739e-05 -4.264108e-05 2.018313e-04 1.307842e-04 1.148860e-04
          9.845796e-05 -1.388160e-04 -9.610340e-05 -5.379041e-05 1.748036e-05 9.319531e-05
          -1.031453e-05 -8.118659e-05 -1.059309e-04 -7.263180e-05 7.751812e-06 9.687599e-05
          1.601203e-04 3.487401e-04 4.298648e-04 -3.219293e-04 9.353708e-05 1.094591e-04
          1.728867e-05 5.086246e-05 6.562607e-05 2.368331e-05 -2.748406e-05 -1.877121e-04
          1.117141e-04 -1.231910e-06 -4.038819e-05 1.820767e-05 7.395210e-05 1.560187e-04
          -4.854366e-06 -1.758454e-05 -5.054240e-05 -2.332130e-05 -7.092631e-05 -4.266584e-05
          3.144814e-05 2.815351e-05 1.768276e-04 3.336142e-04 -2.831655e-05 -1.722518e-04
          -1.711606e-04 -1.853567e-04 -5.971717e-05 3.235392e-05 1.088619e-04 1.215584e-04
          1.191166e-04 -2.838440e-06 -7.901435e-05 -1.096897e-04 -1.559489e-04 -1.839384e-04
          6.269720e-05 2.621521e-04 2.916297e-04 2.660911e-04 2.016082e-04 1.275266e-04
          7.311049e-05 -8.154632e-05 -1.874957e-04 2.599875e-04 -1.659289e-04 -1.885173e-04
          -1.144574e-04 -1.368718e-04 -1.449136e-04 -1.116018e-04 -7.164261e-05 4.916601e-05
          4.565101e-05 1.936345e-04 2.446786e-04 1.727050e-04 1.042748e-04 -4.309978e-08
          1.313350e-04 -6.259911e-05 -4.636698e-05 -7.336395e-05 -8.625435e-06 -1.246156e-05
          8.869077e-05 2.254578e-04 5.201096e-05 -1.602661e-04 9.300905e-05 5.123359e-05
          2.673353e-05 4.767849e-05 -3.100355e-05 2.189629e-04 1.499401e-04 1.343816e-04
          1.177419e-04 -1.260821e-04 -8.617302e-05 -4.483108e-05 2.515014e-05 1.002163e-04
          5.079174e-06 -5.926585e-05 -8.336830e-05 -5.068488e-05 2.774934e-05 1.138933e-04
          1.747382e-04 3.597548e-04 4.383787e-04 -3.005034e-04 1.076756e-04 1.280487e-04
          3.973041e-05 7.314241e-05 8.773328e-05 4.658889e-05 -3.628324e-06 -1.615399e-04
          8.391811e-05 2.333628e-05 2.092450e-06 3.407265e-05 6.449106e-05 1.089328e-04
          1.613559e-05 -1.087194e-05 -2.848790e-05 -9.611340e-06 -3.425036e-05 -1.592396e-05
          4.315648e-05 5.459471e-05 1.360205e-04 2.183796e-04 -5.527255e-06 -1.135085e-04
          -1.158928e-04 -1.231338e-04 -4.351721e-05 5.616545e-05 1.009975e-04 1.078836e-04
          1.038987e-04 -1.648605e-05 -6.562239e-05 -8.197719e-05 -1.055578e-04 -1.154408e-04
          4.778481e-05 1.813447e-04 1.989785e-04 1.852611e-04 1.499547e-04 1.085534e-04
          7.757032e-05 -7.427974e-06 -7.197048e-05 1.492945e-04 -9.194337e-05 -1.004473e-04
          -5.844985e-05 -6.969573e-05 -7.350682e-05 -5.544194e-05 -3.391972e-05 2.964735e-05
          5.904465e-05 1.251014e-04 1.475350e-04 1.160339e-04 8.579840e-05 3.875087e-05
          8.645635e-05 -2.882101e-05 -1.971306e-05 -2.383758e-05 6.708143e-06 7.418507e-06
          6.824059e-05 1.405251e-04 6.453421e-05 -3.228570e-05 4.456837e-05 -1.158813e-05
          -2.610985e-05 -1.611984e-05 -3.630752e-05 1.360975e-04 1.093728e-04 1.024393e-04
          9.178760e-05 -8.392797e-05 -7.620325e-05 -5.763229e-05 -2.488470e-05 1.480565e-05
          1.005891e-05 1.372261e-05 5.204272e-06 1.979926e-05 5.436504e-05 9.134865e-05
          1.164569e-04 1.963091e-04 2.221200e-04 -1.285096e-04 4.696993e-05 6.449102e-05
          2.805860e-05 4.392643e-05 5.097116e-05 3.269030e-05 1.017739e-05 -6.326676e-05
          1.773908e-05 7.756746e-05 9.793589e-05 6.865397e-05 4.068016e-05 -2.113478e-06
          5.539485e-05 -1.237601e-05 -4.207606e-07 -6.807968e-06 2.022118e-05 1.596456e-05
          4.153953e-05 8.705291e-05 1.495406e-05 -7.161775e-05 3.467555e-05 2.198205e-05
          1.269503e-05 2.133743e-05 -1.125704e-05 8.354169e-05 5.437306e-05 4.798099e-05
          4.163346e-05 -5.050710e-05 -3.360714e-05 -1.701592e-05 1.109330e-05 4.063941e-05
          -1.476220e-06 -3.088915e-05 -4.101879e-05 -2.773002e-05 4.495645e-06 3.957468e-05
          6.399238e-05 1.392930e-04 1.726334e-04 -1.204768e-04 5.958937e-05 7.528404e-05
          4.069764e-05 5.440942e-05 6.020332e-05 4.326490e-05 2.257035e-05 -4.342319e-05
          -4.832805e-06 -4.337319e-05 -5.650291e-05 -3.761787e-05 -1.986128e-05 6.789035e-06
          -3.288416e-05 7.829443e-06 1.206173e-06 7.008086e-06 -1.005280e-05 -8.547189e-06
          -3.193402e-05 -6.563853e-05 -1.969757e-05 3.631442e-05 -3.033304e-05 -2.052271e-05
          -1.420871e-05 -1.971012e-05 5.746305e-07 -6.380052e-05 -4.567334e-05 -4.159867e-05
          -3.725063e-05 2.544209e-05 1.497698e-05 4.238802e-06 -1.389985e-05 -3.333825e-05
          -7.946066e-06 9.454806e-06 1.588487e-05 7.276490e-06 -1.299420e-05 -3.499566e-05
          -5.046513e-05 -9.910995e-05 -1.201337e-04 7.132266e-05 -3.726714e-05 -4.470212e-05
          -2.252396e-05 -3.139981e-05 -3.511470e-05 -2.438222e-05 -1.134462e-05 3.014688e-05
          -4.258153e-05 -4.039542e-05 -3.884499e-05 -4.094617e-05 -4.335289e-05 -4.664680e-05
          -3.803221e-05 -9.574062e-06 -1.270008e-05 -2.410227e-05 -2.538474e-05 -3.212495e-05
          -7.161932e-05 -9.758153e-05 -1.029929e-04 -1.010737e-04 -3.059478e-05 3.738704e-05
          4.370775e-05 4.295659e-05 1.373201e-05 -9.605358e-05 -1.055839e-04 -1.060284e-04
          -1.001366e-04 2.018515e-05 3.954723e-05 4.003044e-05 3.838744e-05 2.803223e-05
          -4.296737e-05 -1.034322e-04 -1.077440e-04 -1.073110e-04 -1.043396e-04 -9.856871e-05
          -9.301970e-05 -8.623383e-05 -6.838390e-05 -3.766360e-05 -4.490728e-06 -1.491151e-05
          -2.248648e-05 -2.404511e-05 -2.487208e-05 -2.591070e-05 -2.696514e-05 -2.611511e-05
          -9.416241e-05 4.203859e-05 9.023917e-05 2.096893e-05 -4.514788e-05 -1.436149e-04
          1.692499e-05 -4.164962e-05 -2.423159e-05 -7.050476e-05 -1.548595e-05 -3.802365e-05
          -6.062773e-05 -1.338740e-05 -1.835566e-04 -3.696142e-04 3.172244e-05 1.673562e-04
          1.619188e-04 1.788205e-04 3.791347e-05 -1.595882e-05 -1.013656e-04 -1.162538e-04
          -1.162951e-04 -3.054631e-05 5.274808e-05 9.022788e-05 1.476908e-04 1.877548e-04
          -7.448884e-05 -2.838011e-04 -3.164524e-04 -2.862296e-04 -2.098705e-04 -1.212288e-04
          -5.535653e-05 1.267988e-04 2.428510e-04 -3.295109e-04 1.250301e-04 1.274024e-04
          3.412500e-05 6.063468e-05 7.134130e-05 3.218567e-05 -1.494069e-05 -1.543500e-04
          -6.256124e-05 -1.818221e-04 -2.218261e-04 -1.635159e-04 -1.076887e-04 -2.195514e-05
          -1.350201e-04 8.892535e-06 -2.275520e-05 -2.146407e-05 -7.760910e-05 -6.840462e-05
          -1.169682e-04 -2.073650e-04 -6.266397e-05 1.127724e-04 -7.278243e-05 -2.100291e-05
          2.563138e-07 -1.768615e-05 3.545708e-05 -1.980552e-04 -1.421819e-04 -1.292593e-04
          -1.140774e-04 1.190697e-04 9.281838e-05 5.962374e-05 2.641485e-06 -6.083145e-05
          -4.433124e-06 3.064909e-05 4.938578e-05 2.256245e-05 -4.133732e-05 -1.099817e-04
          -1.565752e-04 -3.052666e-04 -3.657580e-04 2.303292e-04 -1.375799e-04 -1.836828e-04
          -1.188345e-04 -1.472100e-04 -1.587548e-04 -1.249362e-04 -8.358952e-05 5.249005e-05
          -1.172900e-04 1.350200e-04 2.237524e-04 9.691714e-05 -2.350483e-05 -2.034534e-04
          7.986209e-05 -8.017683e-05 -4.914753e-05 -1.253483e-04 -2.140877e-05 -5.230073e-05
          -2.897415e-05 1.023778e-04 -2.073434e-04 -5.574591e-04 9.905065e-05 2.604247e-04
          2.416014e-04 2.739939e-04 4.872853e-05 9.643901e-05 -5.006971e-05 -7.716245e-05
          -8.523548e-05 -8.708800e-05 4.298170e-05 1.125551e-04 2.226177e-04 3.118922e-04
          -8.352540e-05 -3.937360e-04 -4.489233e-04 -3.930120e-04 -2.541548e-04 -9.562809e-05
          2.093767e-05 3.526475e-04 5.452397e-04 -5.721961e-04 2.224663e-04 2.333284e-04
          6.714989e-05 1.185989e-04 1.398719e-04 6.810765e-05 -1.859120e-05 -2.789219e-04
          -3.661254e-05 -3.516482e-05 -3.393275e-05 -3.455102e-05 -3.466375e-05 -3.383506e-05
          -2.920059e-05 -2.197159e-05 -3.361299e-05 -4.991100e-05 -5.246194e-05 -4.900278e-05
          -3.009338e-05 -1.869320e-05 -1.791626e-05 -1.702339e-05 9.037319e-06 3.230928e-05
          3.442724e-05 3.363674e-05 2.180747e-05 -1.532921e-05 -1.703776e-05 -1.689675e-05
          -1.481328e-05 2.747508e-05 3.468892e-05 3.504643e-05 3.488728e-05 3.162395e-05
          5.740566e-06 -1.608183e-05 -1.759577e-05 -1.765853e-05 -1.727685e-05 -1.597595e-05
          -1.348759e-05 -1.025841e-05 -4.477706e-06 -5.137660e-06 -2.638472e-05 -4.822292e-05
          -5.373095e-05 -5.448818e-05 -5.417943e-05 -5.421458e-05 -5.423479e-05 -4.883730e-05
          9.626025e-06 2.581265e-05 3.161346e-05 2.467805e-05 1.834156e-05 8.809438e-06
          1.406747e-05 -3.242044e-05 -4.214331e-05 -5.404875e-05 -4.865906e-05 -4.143854e-05
          1.354190e-05 5.650912e-05 4.242505e-05 1.982012e-05 2.700303e-05 4.614878e-07
          -4.391638e-06 -2.255251e-06 -4.039969e-06 5.792927e-05 5.481280e-05 5.340749e-05
          4.990693e-05 -1.339989e-05 -1.441836e-05 -9.707604e-06 -1.135104e-06 1.059151e-05
          2.111951e-05 3.228538e-05 3.113327e-05 3.428827e-05 4.171167e-05 4.948767e-05
          5.546664e-05 7.390715e-05 7.606438e-05 -2.529021e-05 -2.155212e-05 -3.493423e-05
          -4.606077e-05 -4.237631e-05 -3.986917e-05 -4.377063e-05 -4.865649e-05 -6.134633e-05
          8.739219e-05 8.922444e-05 9.011704e-05 9.089954e-05 9.076850e-05 8.808184e-05
          4.870658e-05 -4.663077e-05 -5.832264e-05 -5.571739e-05 -5.401956e-05 -4.460911e-05
          1.377716e-05 5.414456e-05 5.953740e-05 5.676486e-05 -8.092452e-06 -8.018933e-05
          -8.770623e-05 -8.669028e-05 -6.235870e-05 5.315728e-05 6.143806e-05 6.142697e-05
          5.529098e-05 -7.077131e-05 -8.832138e-05 -8.727686e-05 -8.341108e-05 -7.066476e-05
          -1.973719e-06 5.798701e-05 6.245660e-05 6.253425e-05 6.240742e-05 6.196360e-05
          6.067925e-05 5.637844e-05 3.799251e-05 -1.686420e-05 -5.166369e-05 -5.461996e-05
          -5.481373e-05 -5.368294e-05 -5.229567e-05 -5.212320e-05 -5.231581e-05 -5.495723e-05
          1.088700e-04 9.177381e-05 8.557708e-05 9.567195e-05 1.043083e-04 1.143500e-04
          5.641582e-05 -2.269416e-05 -2.857746e-05 -1.099454e-05 -1.528511e-05 -6.231763e-06
          3.607656e-05 5.806232e-05 8.461176e-05 1.061745e-04 -1.690620e-05 -1.099110e-04
          -1.167933e-04 -1.178015e-04 -7.170015e-05 5.567877e-05 7.488288e-05 7.677668e-05
          7.033776e-05 -7.317444e-05 -1.032249e-04 -1.074647e-04 -1.115701e-04 -1.039671e-04
          4.050039e-06 9.537594e-05 1.043675e-04 1.004803e-04 9.015259e-05 7.747873e-05
          6.640948e-05 3.694583e-05 2.664562e-06 3.091927e-05 -4.634216e-05 -3.686847e-05