<?xml version="1.0"?>
<VTKFile type="RectilinearGrid" version="0.1" byte_order="LittleEndian">
  <RectilinearGrid WholeExtent="0 47 0 47 0 47">
    <Piece Extent="0 47 0 47 0 47">
      <PointData Scalars="concentration">
        <DataArray type="Float32" Name="concentration" NumberOfComponents="1" format="ascii">
          -9.159720e-06 3.161980e-05 4.524548e-05 2.522833e-05 6.682954e-06 -2.059407e-05
          3.015353e-05 3.334434e-06 1.303908e-05 7.266234e-06 2.537861e-05 2.350882e-05
          4.636677e-05 8.045696e-05 3.091128e-05 -2.948085e-05 4.351847e-05 3.557545e-05
          2.927932e-05 3.532808e-05 1.369089e-05 7.888687e-05 5.959380e-05 5.509842e-05
          5.060753e-05 -1.256645e-05 -9.135460e-07 1.021004e-05 2.936555e-05 4.955055e-05
          2.060849e-05 1.793847e-07 -7.096899e-06 1.957028e-06 2.341759e-05 4.603523e-05
          6.203694e-05 1.142695e-04 1.375611e-04 -6.402887e-05 5.166453e-05 6.086588e-05
          3.835370e-05 4.807702e-05 5.211468e-05 4.057810e-05 2.657707e-05 -1.722964e-05
          -4.667695e-05 -6.493385e-06 -4.784986e-07 -1.924915e-05 -3.205954e-05 -4.622075e-05
          1.129800e-04 2.430109e-04 3.270953e-04 3.882838e-04 4.184031e-04 4.171177e-04
          4.489388e-04 4.913782e-04 4.289532e-04 3.381103e-04 2.546762e-04 9.297110e-05
          7.369667e-05 8.408819e-05 1.412448e-04 4.813339e-04 4.786610e-04 4.742655e-04
          4.549971e-04 9.105508e-05 5.373203e-05 6.351959e-05 8.795741e-05 1.329828e-04
          2.716359e-04 3.901622e-04 3.892339e-04 3.995227e-04 4.156875e-04 4.170790e-04
          4.112525e-04 4.619967e-04 4.554345e-04 1.801647e-04 3.078670e-04 4.107040e-04
          4.255791e-04 4.452349e-04 4.516280e-04 4.401759e-04 4.247842e-04 3.599398e-04
          -7.751051e-05 1.503817e-04 2.189533e-04 1.064818e-04 5.448751e-06 -1.410317e-04
          2.529877e-04 2.848639e-04 4.309798e-04 4.808746e-04 5.970923e-04 5.705527e-04
          6.122308e-04 7.509387e-04 4.518047e-04 8.556764e-05 3.891987e-04 2.456281e-04
          2.031534e-04 2.405420e-04 1.780655e-04 7.287445e-04 6.261856e-04 6.014193e-04
          5.666884e-04 8.078337e-06 3.708512e-05 9.840838e-05 2.085372e-04 3.367318e-04
          2.890335e-04 2.673967e-04 2.304769e-04 2.831983e-04 4.012982e-04 5.123782e-04
          5.826734e-04 8.765238e-04 9.918183e-04 -1.608373e-04 5.873627e-04 7.597106e-04
          6.702019e-04 7.332221e-04 7.564918e-04 6.912511e-04 6.101529e-04 3.346096e-04
          3.393543e-05 -1.309605e-04 -1.960042e-04 -1.132507e-04 -3.064696e-05 9.629290e-05
          2.235321e-05 3.015978e-04 3.627560e-04 4.833624e-04 4.285960e-04 4.404362e-04
          3.823597e-04 2.716480e-04 4.559836e-04 6.552773e-04 1.101223e-04 -1.088861e-04
          -1.055561e-04 -1.224635e-04 8.772628e-05 2.655644e-04 3.709060e-04 3.884447e-04
          3.822851e-04 1.533316e-04 3.042080e-05 -1.648359e-05 -8.424062e-05 -1.240510e-04
          2.610901e-04 5.677221e-04 6.076248e-04 5.727240e-04 4.790848e-04 3.582912e-04
          2.631378e-04 4.796858e-05 -9.687272e-05 5.879549e-04 1.285923e-04 2.247759e-04
          3.688578e-04 3.442810e-04 3.317384e-04 3.778437e-04 4.320710e-04 5.773328e-04
          2.091759e-05 1.785036e-04 2.312168e-04 1.514069e-04 7.458597e-05 -4.354190e-05
          1.388917e-04 4.451383e-05 1.098651e-04 1.170525e-04 1.929014e-04 1.587261e-04
          9.363553e-05 1.286066e-04 -7.596863e-05 -3.057532e-04 4.374690e-05 8.403257e-05
          6.711997e-05 9.030996e-05 -1.951788e-05 1.136399e-04 2.279660e-05 5.234468e-06
          -5.637602e-06 -1.246081e-04 -6.188325e-05 -1.877028e-05 5.242797e-05 1.182374e-04
          -6.335627e-05 -2.024661e-04 -2.340570e-04 -1.978722e-04 -1.091343e-04 -1.178682e-05
          5.455102e-05 2.591004e-04 3.683396e-04 -3.384841e-04 2.570221e-04 3.420819e-04
          2.547156e-04 2.903661e-04 3.032012e-04 2.568807e-04 2.003532e-04 1.397664e-05
          4.831125e-05 2.074563e-04 2.673139e-04 1.858949e-04 1.036005e-04 -2.654503e-05
          6.222526e-05 -1.694965e-04 -1.710404e-04 -2.252598e-04 -1.599627e-04 -1.943091e-04
          -2.645135e-04 -2.348148e-04 -4.289917e-04 -6.330535e-04 -1.402034e-04 3.909415e-05
          3.380019e-05 5.316962e-05 -1.283633e-04 -2.419124e-04 -3.480942e-04 -3.657913e-04
          -3.634253e-04 -2.120500e-04 -1.047978e-04 -6.027233e-05 6.633055e-06 5.047423e-05
          -2.834090e-04 -5.487635e-04 -5.863404e-04 -5.510482e-04 -4.571656e-04 -3.404496e-04
          -2.542020e-04 -4.679350e-05 9.015685e-05 -5.556730e-04 2.885193e-05 2.858164e-05
          -9.297270e-05 -6.597989e-05 -5.513415e-05 -1.017300e-04 -1.573537e-04 -3.253022e-04
          7.578457e-05 -1.419286e-04 -2.114006e-04 -1.038585e-04 -5.333323e-06 1.388765e-04
          -1.838364e-04 -1.359818e-04 -2.290013e-04 -2.324440e-04 -3.349656e-04 -3.139081e-04
          -3.738283e-04 -5.170347e-04 -2.408396e-04 9.162998e-05 -2.797726e-04 -2.234955e-04
          -1.897683e-04 -2.225807e-04 -1.210460e-04 -5.024946e-04 -3.974888e-04 -3.740101e-04
          -3.488843e-04 2.510731e-05 -2.797643e-05 -8.749293e-05 -1.895117e-04 -2.985024e-04
          -1.648578e-04 -7.121026e-05 -3.278865e-05 -8.223680e-05 -1.965597e-04 -3.123912e-04
          -3.907598e-04 -6.719094e-04 -7.969597e-04 2.694657e-04 -4.104626e-04 -5.120083e-04
          -4.054261e-04 -4.601697e-04 -4.815154e-04 -4.196804e-04 -3.438543e-04 -9.647034e-05
          -1.065326e-04 2.218142e-04 3.367812e-04 1.730945e-04 1.770368e-05 -2.144796e-04
          1.401710e-04 -1.148531e-04 -7.834024e-05 -1.726608e-04 -3.625115e-05 -6.709820e-05
          2.076386e-05 2.301395e-04 -1.679078e-04 -6.272236e-04 1.592371e-04 2.988651e-04
          2.671361e-04 3.103275e-04 4.449736e-05 2.218917e-04 4.079472e-05 5.617265e-06
          -1.112378e-05 -1.389890e-04 1.184328e-05 1.025186e-04 2.485132e-04 3.765702e-04
          -6.749162e-05 -4.105452e-04 -4.782323e-04 -4.056747e-04 -2.269668e-04 -2.482287e-05
          1.229119e-04 5.501052e-04 7.828621e-04 -7.181640e-04 2.729344e-04 2.879679e-04
          7.587346e-05 1.446229e-04 1.736300e-04 8.087631e-05 -3.156002e-05 -3.707905e-04
          -6.890559e-05 -9.254865e-05 -1.029764e-04 -8.992910e-05 -7.424105e-05 -4.581604e-05
          -1.857000e-05 6.923209e-05 7.343094e-05 7.864749e-05 6.812720e-05 8.401524e-05
          1.571989e-04 1.922490e-04 2.227989e-04 2.452667e-04 1.278850e-04 5.683578e-05
          5.348506e-05 5.111057e-05 9.881615e-05 1.961690e-04 2.204804e-04 2.235307e-04
          2.188284e-04 1.111273e-04 8.183870e-05 7.472921e-05 6.645422e-05 6.738764e-05
          1.640967e-04 2.427839e-04 2.500799e-04 2.446176e-04 2.270980e-04 2.011000e-04
          1.821699e-04 1.518522e-04 1.218490e-04 1.800915e-04 3.220314e-05 2.635099e-05
          5.139850e-05 4.999175e-05 4.995576e-05 5.787542e-05 6.667032e-05 9.634973e-05
          -8.011900e-05 -4.609808e-05 -3.917270e-05 -5.425990e-05 -6.370340e-05 -7.180034e-05
          5.190487e-05 1.371420e-04 1.764287e-04 1.942676e-04 2.131610e-04 2.249199e-04
          3.238589e-04 4.040244e-04 3.603060e-04 2.895102e-04 2.342124e-04 1.115842e-04
          9.596066e-05 1.031097e-04 1.408362e-04 4.024524e-04 4.030604e-04 3.999215e-04
          3.851230e-04 1.091653e-04 8.305144e-05 9.161646e-05 1.117710e-04 1.476408e-04
          2.475067e-04 3.338375e-04 3.327431e-04 3.405484e-04 3.523760e-04 3.534968e-04
          3.515043e-04 3.945138e-04 3.896857e-04 1.456192e-04 1.746961e-04 2.110251e-04
          2.140473e-04 2.289143e-04 2.350771e-04 2.267098e-04 2.151590e-04 1.755148e-04
          -5.137829e-05 -1.493757e-05 -7.810612e-06 -2.380410e-05 -3.404274e-05 -4.411487e-05
          8.116059e-05 1.548175e-04 2.027717e-04 2.324153e-04 2.548086e-04 2.666533e-04
          3.696864e-04 4.548059e-04 4.074612e-04 3.296203e-04 2.457395e-04 8.908504e-05
          6.996370e-05 7.820432e-05 1.293432e-04 4.508979e-04 4.535330e-04 4.500890e-04
          4.319799e-04 9.039776e-05 5.529092e-05 6.464902e-05 8.724107e-05 1.298207e-04
          2.626529e-04 3.772260e-04 3.775746e-04 3.860847e-04 3.988908e-04 3.995018e-04
          3.957902e-04 4.400458e-04 4.289548e-04 1.567505e-04 1.978530e-04 2.503096e-04
          2.566503e-04 2.733564e-04 2.800782e-04 2.709951e-04 2.583144e-04 2.113904e-04
          3.546453e-05 3.572510e-05 3.563866e-05 3.681155e-05 3.867979e-05 4.127415e-05
          3.274530e-05 -6.096304e-06 -1.009241e-05 -6.592588e-06 -5.610644e-06 5.170807e-06
          6.969243e-05 1.124811e-04 1.174162e-04 1.125954e-04 4.295739e-05 -2.984774e-05
          -3.717745e-05 -3.635457e-05 -7.818484e-06 1.125830e-04 1.228355e-04 1.230116e-04
          1.164380e-04 -1.406377e-05 -3.367094e-05 -3.322369e-05 -3.020156e-05 -1.791382e-05
          5.494639e-05 1.175007e-04 1.216718e-04 1.214374e-04 1.193050e-04 1.144211e-04
          1.100525e-04 1.060976e-04 8.788465e-05 3.672031e-05 -1.289616e-05 -1.372008e-05
          -9.269071e-06 -7.276500e-06 -5.805109e-06 -5.067466e-06 -4.737591e-06 -4.560290e-06
          1.063808e-04 8.927803e-05 8.777586e-05 9.668493e-05 1.020892e-04 1.051572e-04
          -4.060282e-06 -1.480195e-04 -1.938150e-04 -2.157360e-04 -2.272847e-04 -2.205619e-04
          -1.965620e-04 -1.885467e-04 -1.561826e-04 -1.169268e-04 -1.337056e-04 -1.206154e-04
          -1.183094e-04 -1.220581e-04 -1.271440e-04 -1.856734e-04 -1.778483e-04 -1.761424e-04
          -1.727614e-04 -1.128513e-04 -1.106230e-04 -1.140496e-04 -1.220778e-04 -1.318286e-04
          -1.371298e-04 -1.404969e-04 -1.363480e-04 -1.410094e-04 -1.480707e-04 -1.484198e-04
          -1.465874e-04 -1.737618e-04 -1.862975e-04 -1.037023e-04 -1.798588e-04 -2.237362e-04
          -2.301392e-04 -2.381358e-04 -2.401733e-04 -2.351006e-04 -2.283498e-04 -2.026770e-04
          7.553284e-05 1.268538e-04 1.483153e-04 1.234146e-04 9.742167e-05 5.446290e-05
          3.321534e-05 -1.449339e-04 -1.758820e-04 -2.112722e-04 -1.933737e-04 -1.914360e-04
          -1.394583e-04 -8.140573e-05 -1.328348e-04 -1.930581e-04 -6.796171e-05 -4.759818e-05
          -5.377298e-05 -4.805310e-05 -9.783103e-05 -8.070165e-05 -1.077952e-04 -1.134133e-04
          -1.155190e-04 -1.242412e-04 -9.738665e-05 -8.199117e-05 -5.887978e-05 -3.844703e-05
          -1.128665e-04 -1.681910e-04 -1.771954e-04 -1.666237e-04 -1.374651e-04 -9.880537e-05
          -6.904048e-05 -7.483496e-06 2.397312e-05 -2.188340e-04 -9.548196e-05 -1.280661e-04
          -1.742593e-04 -1.666387e-04 -1.621939e-04 -1.763735e-04 -1.929642e-04 -2.395403e-04
          2.329853e-05 -4.727469e-05 -7.125238e-05 -3.404411e-05 2.587535e-06 5.894002e-05
          -3.081132e-05 -2.657998e-05 -6.086435e-05 -6.159284e-05 -9.500434e-05 -6.784915e-05
          3.093971e-05 6.109923e-05 1.584919e-04 2.569675e-04 2.797965e-05 -6.515584e-05
          -6.502667e-05 -7.461747e-05 4.232217e-06 6.833755e-05 1.199760e-04 1.279647e-04
          1.261762e-04 4.536044e-05 -2.997919e-06 -2.189979e-05 -5.088204e-05 -6.787891e-05
          8.881590e-05 2.158160e-04 2.342807e-04 2.177506e-04 1.754431e-04 1.263503e-04
          9.200239e-05 -4.081693e-06 -7.201330e-05 1.926123e-04 -1.298781e-04 -1.706687e-04
          -1.268584e-04 -1.408111e-04 -1.450223e-04 -1.235085e-04 -9.749280e-05 -1.293940e-05
          -4.550514e-05 5.366971e-05 8.658375e-05 3.959363e-05 -2.184797e-06 -6.137469e-05
          6.855290e-05 -7.316003e-06 1.313662e-06 -2.664417e-05 1.433501e-05 2.626020e-05
          1.762725e-04 3.192931e-04 2.067002e-04 5.747123e-05 1.825006e-04 1.096254e-04
          8.897050e-05 1.031074e-04 7.090271e-05 3.196426e-04 2.833316e-04 2.731505e-04
          2.577964e-04 9.395810e-06 2.246624e-05 5.014080e-05 9.843340e-05 1.560309e-04
          1.395348e-04 1.359766e-04 1.216269e-04 1.430400e-04 1.912889e-04 2.395662e-04
          2.743416e-04 3.987445e-04 4.410337e-04 -9.652873e-05 9.498229e-05 9.193127e-05
          3.831937e-05 6.326120e-05 7.487126e-05 4.844777e-05 1.598300e-05 -8.167968e-05
          2.654949e-05 -3.181006e-05 -5.233196e-05 -2.127278e-05 9.641061e-06 5.727854e-05
          -9.687637e-06 -2.237778e-07 -2.133579e-05 -1.368569e-05 -3.968124e-05 -1.624854e-05
          7.255232e-05 1.026691e-04 1.824601e-04 2.602610e-04 4.511009e-05 -5.798298e-05
          -6.025907e-05 -6.761320e-05 9.539989e-06 1.074722e-04 1.530968e-04 1.597407e-04
          1.558000e-04 3.981182e-05 -7.940655e-06 -2.362883e-05 -4.655536e-05 -5.627719e-05
          1.006720e-04 2.287512e-04 2.453199e-04 2.317811e-04 1.961446e-04 1.531125e-04
          1.220444e-04 4.176161e-05 -2.012471e-05 1.845251e-04 -8.432889e-05 -1.072981e-04
          -6.675946e-05 -7.703156e-05 -8.018030e-05 -6.225994e-05 -4.097222e-05 2.625897e-05
          5.331392e-05 3.589766e-06 -9.759887e-06 1.625874e-05 3.968927e-05 7.301901e-05
          -4.571155e-05 -1.299471e-04 -1.875992e-04 -2.151049e-04 -2.432989e-04 -2.231261e-04
          -1.481134e-04 -1.240452e-04 -4.843703e-05 3.402373e-05 -7.493996e-05 -8.968214e-05
          -8.561760e-05 -9.416145e-05 -6.693762e-05 -1.159101e-04 -8.476491e-05 -7.897593e-05
          -7.532757e-05 -2.932880e-05 -4.639437e-05 -5.915744e-05 -8.116535e-05 -1.012433e-04
          -4.772185e-05 -4.840648e-06 6.530008e-06 -5.751001e-06 -3.346351e-05 -5.914518e-05
          -7.454112e-05 -1.431294e-04 -1.823672e-04 2.733986e-05 -2.108544e-04 -2.787026e-04
          -2.634322e-04 -2.773794e-04 -2.812803e-04 -2.657468e-04 -2.470484e-04 -1.787713e-04
          9.034765e-06 2.664613e-04 3.618101e-04 2.339970e-04 1.093786e-04 -8.181909e-05
          9.855376e-05 -2.693166e-04 -2.944687e-04 -4.055728e-04 -3.050079e-04 -3.221480e-04
          -2.136320e-04 -2.404721e-05 -3.222352e-04 -6.639595e-04 -9.145940e-06 1.348025e-04
          1.117625e-04 1.433697e-04 -9.146422e-05 -2.637019e-05 -1.707079e-04 -1.981416e-04
          -2.073816e-04 -2.265849e-04 -9.398661e-05 -2.151687e-05 9.202262e-05 1.870335e-04
          -2.048462e-04 -5.077638e-04 -5.606893e-04 -5.048778e-04 -3.626254e-04 -1.926988e-04
          -6.558371e-05 2.646694e-04 4.491815e-04 -7.190019e-04 1.902012e-05 -2.708944e-05
          -2.148590e-04 -1.663124e-04 -1.442381e-04 -2.162469e-04 -3.032559e-04 -5.569845e-04
          8.261076e-05 -4.908617e-05 -8.747220e-05 -2.117646e-05 3.856380e-05 1.244847e-04
          -1.296906e-04 -2.145293e-04 -3.178630e-04 -3.569298e-04 -4.256482e-04 -3.978130e-04
          -3.478520e-04 -3.798118e-04 -1.984739e-04 1.373848e-05 -2.096521e-04 -1.778614e-04
          -1.589178e-04 -1.805396e-04 -1.275938e-04 -3.648607e-04 -2.968858e-04 -2.822232e-04
          -2.666967e-04 -3.087791e-05 -6.015952e-05 -9.512750e-05 -1.565034e-04 -2.217964e-04
          -1.451520e-04 -8.969627e-05 -6.495627e-05 -9.602952e-05 -1.660566e-04 -2.323064e-04
          -2.740259e-04 -4.480421e-04 -5.292873e-04 9.464264e-05 -4.012107e-04 -5.214456e-04
          -4.715645e-04 -5.076415e-04 -5.199180e-04 -4.810839e-04 -4.335985e-04 -2.688315e-04
          4.738141e-05 1.972803e-05 2.189004e-05 3.537575e-05 4.267112e-05 4.835054e-05
          -1.454310e-04 -3.769207e-04 -5.086844e-04 -6.170582e-04 -6.500100e-04 -6.342669e-04
          -5.742328e-04 -5.534035e-04 -4.921720e-04 -4.074500e-04 -2.763498e-04 -9.487979e-05
          -7.675246e-05 -8.745935e-05 -1.698086e-04 -5.359009e-04 -5.368540e-04 -5.333425e-04
          -5.130837e-04 -1.151554e-04 -6.450986e-05 -7.007778e-05 -8.920213e-05 -1.313422e-04
          -3.079242e-04 -4.552310e-04 -4.566374e-04 -4.654365e-04 -4.757610e-04 -4.658207e-04
          -4.480043e-04 -4.846581e-04 -4.705280e-04 -2.674635e-04 -4.491300e-04 -6.182136e-04
          -6.570338e-04 -6.773198e-04 -6.819134e-04 -6.725813e-04 -6.597824e-04 -5.898020e-04
          2.164268e-05 5.792778e-05 8.513086e-05 6.611642e-05 4.112109e-05 -2.504336e-06
          -1.594951e-04 -4.804086e-04 -6.311896e-04 -7.842360e-04 -7.956381e-04 -7.873304e-04
          -7.214813e-04 -6.686345e-04 -6.810411e-04 -6.739982e-04 -3.195967e-04 -4.058219e-05
          -2.244881e-05 -2.657860e-05 -1.945557e-04 -6.491962e-04 -6.930440e-04 -6.963773e-04
          -6.726896e-04 -1.647711e-04 -6.341393e-05 -5.089581e-05 -4.428949e-05 -7.313523e-05
          -4.111143e-04 -6.879030e-04 -7.056698e-04 -7.008126e-04 -6.744119e-04 -6.172805e-04
          -5.623997e-04 -5.143658e-04 -4.403891e-04 -4.932585e-04 -4.827406e-04 -6.845735e-04
          -7.787718e-04 -7.895910e-04 -7.894997e-04 -7.983026e-04 -8.067454e-04 -7.942403e-04
          6.640924e-05 -2.222811e-04 -3.105882e-04 -1.670710e-04 -3.549857e-05 1.583558e-04
          -3.069193e-04 -3.121525e-04 -4.895052e-04 -5.474079e-04 -6.937654e-04 -6.485300e-04
          -6.322952e-04 -7.634258e-04 -3.826546e-04 7.128753e-05 -3.843268e-04 -2.746765e-04
          -2.278490e-04 -2.741613e-04 -1.628397e-04 -7.341551e-04 -5.929460e-04 -5.611578e-04
          -5.240818e-04 4.799467e-05 -9.939707e-06 -8.775716e-05 -2.245191e-04 -3.749015e-04
          -2.391286e-04 -1.482944e-04 -9.816058e-05 -1.651363e-04 -3.183444e-04 -4.687140e-04
          -5.655976e-04 -9.390445e-04 -1.101367e-03 3.061876e-04 -7.015797e-04 -9.160217e-04
          -7.929397e-04 -8.693928e-04 -8.968626e-04 -8.132422e-04 -7.102115e-04 -3.598052e-04
          -7.478965e-05 1.558134e-04 2.384661e-04 1.233405e-04 1.345825e-05 -1.513301e-04
          7.574501e-05 -1.365179e-04 -1.300520e-04 -2.143217e-04 -1.219857e-04 -1.414295e-04
          -6.842068e-05 8.511236e-05 -1.904791e-04 -5.062546e-04 7.668028e-05 2.049706e-04
          1.850522e-04 2.141707e-04 1.142816e-05 8.193768e-05 -4.773706e-05 -7.225942e-05
          -8.104699e-05 -1.107826e-04 4.558506e-06 6.880892e-05 1.701237e-04 2.549763e-04
          -8.998322e-05 -3.582811e-04 -4.069174e-04 -3.563785e-04 -2.302361e-04 -8.448010e-05
          2.360957e-05 3.238139e-04 4.927267e-04 -5.498373e-04 1.297294e-04 1.143344e-04
          -4.319147e-05 2.884808e-06 2.310349e-05 -4.176154e-05 -1.201223e-04 -3.519480e-04
          -5.961838e-05 -7.296588e-05 -8.158477e-05 -7.454462e-05 -6.459993e-05 -4.549387e-05
          1.534693e-05 1.404477e-04 1.766954e-04 2.082799e-04 2.075407e-04 2.109943e-04
          2.225955e-04 2.243059e-04 2.331566e-04 2.348280e-04 1.333355e-04 5.967520e-05
          5.529885e-05 5.549766e-05 1.030107e-04 2.221925e-04 2.378788e-04 2.395240e-04
          2.334264e-04 1.017295e-04 7.293386e-05 6.852952e-05 6.491865e-05 7.072133e-05
          1.642754e-04 2.401700e-04 2.452198e-04 2.428722e-04 2.322607e-04 2.116360e-04
          1.940047e-04 1.782388e-04 1.567240e-04 1.800622e-04 1.311300e-04 1.704576e-04
          1.980475e-04 2.005480e-04 2.009041e-04 2.049146e-04 2.089049e-04 2.150566e-04
          -5.306145e-05 -9.427222e-05 -1.144685e-04 -9.362510e-05 -6.999198e-05 -2.984351e-05
          2.687265e-05 2.152066e-04 2.712231e-04 3.316473e-04 3.232976e-04 3.253550e-04
          3.084515e-04 2.797757e-04 3.169538e-04 3.501953e-04 1.544501e-04 4.211934e-05
          3.837491e-05 3.618310e-05 1.215830e-04 2.751039e-04 3.078058e-04 3.122343e-04
          3.048077e-04 1.289723e-04 7.832949e-05 6.586259e-05 5.089034e-05 5.025496e-05
          2.116317e-04 3.413495e-04 3.530015e-04 3.450064e-04 3.189046e-04 2.774818e-04
          2.427951e-04 1.911613e-04 1.456640e-04 2.882245e-04 1.812250e-04 2.499000e-04
          3.047268e-04 3.037192e-04 3.016992e-04 3.132325e-04 3.259943e-04 3.530289e-04
          -4.702402e-05 1.117475e-04 1.620765e-04 8.253745e-05 8.870255e-06 -1.000536e-04
          1.439830e-04 1.357394e-04 2.217872e-04 2.403857e-04 3.184509e-04 2.915610e-04
          2.708185e-04 3.345381e-04 1.259337e-04 -1.181374e-04 1.747299e-04 1.568693e-04
          1.347422e-04 1.593156e-04 7.848426e-05 3.201263e-04 2.377134e-04 2.202418e-04
          2.036000e-04 -3.141084e-05 1.278852e-05 5.590155e-05 1.295881e-04 2.053337e-04
          8.604472e-05 -1.427760e-06 -3.112843e-05 5.518395e-06 9.108502e-05 1.780899e-04
          2.357782e-04 4.429022e-04 5.414452e-04 -2.108111e-04 3.483083e-04 4.491715e-04
          3.742487e-04 4.143208e-04 4.288791e-04 3.829030e-04 3.262717e-04 1.375906e-04
          3.384632e-05 -7.192636e-05 -1.106217e-04 -5.857267e-05 -8.859774e-06 6.553054e-05
          -2.045028e-05 1.128802e-04 1.300573e-04 1.863009e-04 1.473681e-04 1.485327e-04
          7.250640e-05 -2.447254e-05 9.547285e-05 2.359030e-04 -3.182486e-05 -9.005684e-05
          -8.060926e-05 -9.310088e-05 3.133541e-06 -2.645650e-05 3.069970e-05 4.172342e-05
          4.539767e-05 5.472016e-05 4.854639e-07 -2.910394e-05 -7.556682e-05 -1.146274e-04
          4.533994e-05 1.690942e-04 1.908646e-04 1.682030e-04 1.113660e-04 4.405766e-05
          -7.414146e-06 -1.435740e-04 -2.188691e-04 2.686297e-04 1.020208e-06 3.567873e-05
          1.135734e-04 9.356979e-05 8.395134e-05 1.131049e-04 1.480053e-04 2.464536e-04
          -3.625514e-05 1.176123e-04 1.714835e-04 9.383565e-05 1.920096e-05 -9.356738e-05
          7.308823e-05 -3.435981e-05 -4.985590e-06 -3.756892e-05 2.868579e-05 4.372436e-06
          -1.030644e-05 5.250045e-05 -1.394474e-04 -3.544833e-04 3.758096e-05 1.275477e-04
          1.152042e-04 1.357706e-04 2.766735e-06 4.556252e-05 -4.488632e-05 -6.171272e-05
          -6.752037e-05 -8.525683e-05 -8.438495e-06 3.406246e-05 1.015761e-04 1.574746e-04
          -7.456254e-05 -2.560031e-04 -2.892231e-04 -2.547796e-04 -1.689427e-04 -7.109680e-05
          -5.102791e-07 2.011229e-04 3.172070e-04 -3.615143e-04 1.572946e-04 1.839604e-04
          8.537502e-05 1.172690e-04 1.299168e-04 8.563618e-05 3.205727e-05 -1.334879e-04
          -3.338836e-07 -5.613741e-05 -7.610333e-05 -4.861850e-05 -2.216166e-05 1.811549e-05
          -2.640624e-05 4.631283e-05 4.850846e-05 6.933718e-05 4.705728e-05 4.982634e-05
          2.147619e-05 -2.282286e-05 4.196960e-05 1.176637e-04 -1.237495e-05 -3.186629e-05
          -2.595254e-05 -3.298467e-05 1.230796e-05 -2.206332e-05 7.800662e-06 1.373776e-05
          1.668508e-05 4.292257e-05 1.769873e-05 2.073379e-06 -2.286304e-05 -4.528326e-05
          2.717410e-05 8.241324e-05 9.329060e-05 8.114816e-05 5.087829e-05 1.560676e-05
          -1.052381e-05 -8.166424e-05 -1.191513e-04 1.401529e-04 -1.624972e-05 -1.036913e-05
          2.815470e-05 1.705492e-05 1.205712e-05 2.768757e-05 4.639359e-05 1.021843e-04
          5.358428e-05 1.223185e-04 1.453482e-04 1.102451e-04 7.555573e-05 2.026578e-05
          8.721991e-05 2.516030e-05 6.179856e-05 7.808932e-05 1.139250e-04 9.392182e-05
          3.764542e-05 3.630509e-05 -5.520094e-05 -1.560701e-04 -1.237804e-05 -3.996621e-06
          -1.223411e-05 -1.471894e-06 -4.523571e-05 2.651467e-05 -1.415721e-05 -2.212364e-05
          -2.772986e-05 -9.635979e-05 -7.154907e-05 -5.252870e-05 -2.103255e-05 9.198846e-06
          -6.065382e-05 -1.132091e-04 -1.263704e-04 -1.103038e-04 -7.028487e-05 -2.610989e-05
          2.795424e-06 9.077358e-05 1.365456e-04 -1.691015e-04 1.243918e-04 1.800946e-04
          1.439639e-04 1.597503e-04 1.649723e-04 1.442093e-04 1.189202e-04 3.100188e-05
          1.478933e-04 2.076344e-04 2.301012e-04 1.984830e-04 1.636306e-04 1.026376e-04
          9.537067e-05 -5.299728e-05 -3.079520e-05 -1.408233e-05 1.815822e-05 -1.201866e-05
          -1.349465e-04 -1.822161e-04 -2.622481e-04 -3.387678e-04 -1.628699e-04 -1.053363e-04
          -1.080372e-04 -9.920327e-05 -1.625096e-04 -1.945022e-04 -2.400155e-04 -2.475332e-04
          -2.474571e-04 -2.079419e-04 -1.701286e-04 -1.530133e-04 -1.273129e-04 -1.092458e-04
          -2.247104e-04 -3.155086e-04 -3.286274e-04 -3.144895e-04 -2.748467e-04 -2.244027e-04
          -1.906962e-04 -1.160514e-04 -6.607780e-05 -2.881266e-04 4.172683e-05 9.503889e-05
          5.343755e-05 6.352698e-05 6.607470e-05 4.673522e-05 2.397486e-05 -5.828520e-05
          1.188215e-04 8.033058e-05 6.384988e-05 8.238063e-05 9.893016e-05 1.195444e-04
          8.243944e-05 1.170856e-04 1.634939e-04 2.354256e-04 2.314841e-04 2.184833e-04
          1.173679e-04 3.893399e-05 7.338516e-05 1.153507e-04 -4.257431e-05 -1.245720e-04
          -1.262158e-04 -1.281301e-04 -6.323688e-05 2.751549e-05 4.924442e-05 5.256470e-05
          4.831898e-05 -6.418141e-05 -1.021117e-04 -1.129604e-04 -1.274779e-04 -1.317397e-04
          -8.794474e-06 9.068535e-05 1.017826e-04 9.465698e-05 7.599912e-05 5.064872e-05
          2.639182e-05 -2.685814e-05 -6.613146e-05 1.019197e-04 9.774989e-05 1.829975e-04
          2.259106e-04 2.216203e-04 2.176235e-04 2.266782e-04 2.374213e-04 2.506739e-04
          1.951638e-05 2.366786e-05 1.524315e-05 1.410762e-05 1.743439e-05 2.513469e-05
          1.484750e-04 3.120121e-04 4.195122e-04 5.236023e-04 5.450681e-04 5.376780e-04
          5.072157e-04 4.951469e-04 4.696446e-04 4.233415e-04 2.221280e-04 1.426059e-05
          -3.850134e-06 3.234637e-06 1.060148e-04 4.793066e-04 4.960967e-04 4.952368e-04
          4.750427e-04 6.470701e-05 8.556457e-07 6.285554e-07 1.012979e-05 4.597609e-05
          2.672198e-04 4.515314e-04 4.596253e-04 4.627347e-04 4.604827e-04 4.389546e-04
          4.132843e-04 4.155354e-04 3.780435e-04 2.669980e-04 3.485660e-04 4.964992e-04
          5.440634e-04 5.580312e-04 5.608115e-04 5.586055e-04 5.543551e-04 5.125465e-04
          -3.082858e-05 1.090406e-04 1.474703e-04 7.857570e-05 1.776177e-05 -7.005961e-05
          2.097608e-04 2.861918e-04 4.161964e-04 4.871916e-04 5.660564e-04 5.439523e-04
          5.385105e-04 6.058401e-04 4.137133e-04 1.756836e-04 2.970762e-04 1.451081e-04
          1.139394e-04 1.391274e-04 1.343291e-04 5.856735e-04 5.272559e-04 5.117984e-04
          4.844946e-04 1.587061e-05 1.317655e-05 5.033333e-05 1.201555e-04 2.091276e-04
          2.497704e-04 2.944077e-04 2.744458e-04 3.077346e-04 3.793152e-04 4.404495e-04
          4.747137e-04 6.540364e-04 7.130719e-04 -1.644428e-05 4.859651e-04 6.492654e-04
          6.116763e-04 6.546178e-04 6.693228e-04 6.286025e-04 5.777260e-04 3.933932e-04
          3.693507e-05 -7.803841e-05 -1.224633e-04 -6.525823e-05 -9.518840e-06 7.482865e-05
          1.911571e-06 1.732142e-04 2.072320e-04 2.839353e-04 2.443028e-04 2.474914e-04
          1.753936e-04 7.745572e-05 2.061421e-04 3.518693e-04 1.534519e-05 -9.310308e-05
          -8.653652e-05 -9.911752e-05 2.726975e-05 7.350414e-05 1.406841e-04 1.526464e-04
          1.527045e-04 7.697764e-05 4.477291e-06 -2.806735e-05 -7.709250e-05 -1.122830e-04
          1.097534e-04 2.845076e-04 3.102975e-04 2.859393e-04 2.224879e-04 1.438381e-04
          8.247696e-05 -6.694767e-05 -1.582579e-04 3.490940e-04 5.395724e-05 1.122761e-04
          2.058784e-04 1.865134e-04 1.767278e-04 2.083211e-04 2.463370e-04 3.487237e-04
          -2.018366e-05 2.371945e-04 3.240394e-04 1.943033e-04 7.003865e-05 -1.186106e-04
          1.792550e-04 2.642231e-05 1.090345e-04 9.176854e-05 2.095544e-04 1.627429e-04
          1.035684e-04 1.886363e-04 -1.391994e-04 -5.088101e-04 8.948157e-05 1.831592e-04
          1.580400e-04 1.944396e-04 8.452432e-07 1.705324e-04 2.256232e-05 -5.964761e-06
          -2.072405e-05 -1.601296e-04 -4.911165e-05 2.155266e-05 1.364047e-04 2.390277e-04
          -8.769269e-05 -3.400435e-04 -3.929582e-04 -3.345035e-04 -1.912106e-04 -3.227133e-05
          7.895526e-05 4.140649e-04 5.973245e-04 -5.545274e-04 3.601360e-04 4.571231e-04
          3.064480e-04 3.630489e-04 3.843915e-04 3.093636e-04 2.188920e-04 -7.264608e-05
          1.337096e-04 1.420949e-04 1.437386e-04 1.372751e-04 1.274855e-04 1.056269e-04
          8.824307e-05 6.055584e-05 1.087916e-04 1.650400e-04 1.803933e-04 1.480767e-04
          -2.800818e-05 -1.328923e-04 -1.592409e-04 -1.731797e-04 -1.372978e-04 -1.165317e-04
          -1.148140e-04 -1.113840e-04 -1.203661e-04 -1.474876e-04 -1.649414e-04 -1.671819e-04
          -1.661961e-04 -1.434242e-04 -1.357773e-04 -1.336101e-04 -1.303525e-04 -1.300071e-04
          -1.562487e-04 -1.782396e-04 -1.809634e-04 -1.774461e-04 -1.661219e-04 -1.519817e-04
          -1.467934e-04 -1.368139e-04 -1.234423e-04 -1.087094e-04 1.062390e-04 1.955662e-04
          1.987163e-04 2.007307e-04 1.987117e-04 1.931891e-04 1.871240e-04 1.486811e-04
          1.858689e-04 2.117649e-04 2.153288e-04 2.003355e-04 1.834551e-04 1.500461e-04
          1.911254e-04 1.996202e-04 3.057139e-04 4.176921e-04 4.521382e-04 4.104309e-04
          2.010069e-04 8.684341e-05 2.806664e-05 -2.955590e-05 -5.992282e-05 -1.399533e-04
          -1.493002e-04 -1.399493e-04 -1.095148e-04 6.134189e-05 4.241512e-05 3.790600e-05
          2.761926e-05 -1.655974e-04 -1.833486e-04 -1.767450e-04 -1.615111e-04 -1.365254e-04
          -7.034212e-05 -1.357194e-05 -1.496563e-05 -6.319169e-06 1.376370e-05 2.944487e-05
          2.986348e-05 5.975959e-05 6.425125e-05 -4.340187e-05 2.864440e-04 4.616610e-04
          4.782271e-04 4.901685e-04 4.904272e-04 4.791458e-04 4.649961e-04 3.849515e-04
          6.709141e-05 7.723275e-05 6.694387e-05 6.254300e-05 6.358660e-05 6.695427e-05
          2.390236e-04 4.584056e-04 6.244669e-04 7.875175e-04 8.232694e-04 8.043120e-04
          7.185038e-04 6.774335e-04 6.316851e-04 5.586527e-04 2.821027e-04 -1.246963e-05
          -3.873062e-05 -2.729637e-05 1.168474e-04 6.507601e-04 6.696309e-04 6.675997e-04
          6.383103e-04 5.012410e-05 -3.929369e-05 -3.828500e-05 -2.265053e-05 3.021709e-05
          3.403874e-04 5.991350e-04 6.097613e-04 6.155288e-04 6.165595e-04 5.909164e-04
          5.564902e-04 5.649740e-04 5.153312e-04 3.474907e-04 5.250167e-04 7.598953e-04
          8.273093e-04 8.483509e-04 8.520586e-04 8.470475e-04 8.384409e-04 7.662812e-04
          -2.034829e-05 -3.471457e-05 -4.999628e-05 -4.186738e-05 -2.842472e-05 -3.372797e-06
          1.269477e-04 3.471716e-04 4.566555e-04 5.638634e-04 5.770957e-04 5.746169e-04
          5.586849e-04 5.466640e-04 5.427765e-04 5.185587e-04 2.655617e-04 4.279782e-05
          2.574640e-05 3.047608e-05 1.529111e-04 5.326909e-04 5.619574e-04 5.633761e-04
          5.431003e-04 1.235519e-04 4.816787e-05 4.265518e-05 4.420956e-05 7.404285e-05
          3.289470e-04 5.393219e-04 5.511396e-04 5.500939e-04 5.364559e-04 4.998894e-04
          4.633837e-04 4.433120e-04 3.918938e-04 3.555948e-04 3.598027e-04 5.043620e-04