<?xml version="1.0"?>
<VTKFile type="RectilinearGrid" version="0.1" byte_order="LittleEndian">
  <RectilinearGrid WholeExtent="0 47 0 47 0 47">
    <Piece Extent="0 47 0 47 0 47">
      <PointData Scalars="concentration">
        <DataArray type="Float32" Name="concentration" NumberOfComponents="1" format="ascii">
          -1.670190e-05 1.124035e-05 2.298293e-05 9.299185e-06 -3.791903e-06 -2.321460e-05
          -1.448742e-05 -7.437581e-05 -9.626521e-05 -1.278703e-04 -1.208536e-04 -1.166449e-04
          -7.124273e-05 -3.024687e-05 -5.767816e-05 -9.020481e-05 -3.281348e-06 2.752190e-05
          2.613799e-05 2.848419e-05 -6.183399e-06 -2.662316e-05 -4.201242e-05 -4.463542e-05
          -4.401369e-05 -1.470782e-05 4.888255e-06 1.291585e-05 2.485153e-05 3.269179e-05
          -2.718596e-05 -7.436271e-05 -8.050482e-05 -7.498225e-05 -6.015385e-05 -4.054596e-05
          -2.421496e-05 1.179778e-05 3.388954e-05 -9.432675e-05 -5.218303e-05 -8.625488e-05
          -1.131357e-04 -1.091507e-04 -1.065845e-04 -1.137831e-04 -1.223970e-04 -1.418616e-04
          -2.014997e-04 -1.738032e-04 -1.672763e-04 -1.798529e-04 -1.855130e-04 -1.839180e-04
          -4.788651e-05 9.196396e-05 1.018727e-04 7.730776e-05 8.446452e-05 1.023475e-04
          2.258520e-04 3.144346e-04 2.824081e-04 2.295428e-04 2.478874e-04 2.137917e-04
          2.071817e-04 2.107696e-04 2.138381e-04 3.222143e-04 3.199425e-04 3.179730e-04
          3.119143e-04 2.057060e-04 2.021778e-04 2.089646e-04 2.225333e-04 2.407316e-04
          2.555073e-04 2.684918e-04 2.637439e-04 2.693476e-04 2.769104e-04 2.766375e-04
          2.779339e-04 3.187581e-04 3.299853e-04 1.500601e-04 1.082571e-04 8.542864e-05
          7.903352e-05 8.935819e-05 9.456759e-05 8.884797e-05 8.109873e-05 6.651544e-05
          -3.086011e-04 -8.925316e-05 -1.805941e-05 -1.258722e-04 -2.199334e-04 -3.477483e-04
          4.037359e-05 1.016068e-04 1.530389e-04 8.692746e-05 1.759167e-04 1.776387e-04
          3.635226e-04 5.813913e-04 3.132350e-04 -1.690099e-05 4.241882e-04 4.366861e-04
          4.087297e-04 4.384948e-04 3.058148e-04 5.835301e-04 4.802574e-04 4.578367e-04
          4.385751e-04 1.867764e-04 2.593806e-04 3.187518e-04 4.184747e-04 5.169776e-04
          3.118203e-04 1.566774e-04 1.135202e-04 1.617671e-04 2.714826e-04 3.819022e-04
          4.628829e-04 7.540890e-04 8.951336e-04 -1.805437e-04 3.468610e-04 3.524575e-04
          2.326279e-04 2.859748e-04 3.089487e-04 2.492725e-04 1.758596e-04 -3.983181e-05
          -1.917482e-04 -3.606529e-04 -4.221394e-04 -3.363109e-04 -2.477717e-04 -1.032022e-04
          -1.745603e-04 1.269203e-04 9.566933e-05 1.026903e-04 2.323469e-05 6.730401e-05
          1.805436e-04 1.689323e-04 3.802758e-04 6.062795e-04 1.765356e-04 8.192077e-05
          9.613808e-05 7.271529e-05 2.232475e-04 1.870188e-04 2.938498e-04 3.132994e-04
          3.193374e-04 3.341968e-04 2.476918e-04 2.000718e-04 1.251546e-04 6.294530e-05
          3.188300e-04 5.165257e-04 5.510375e-04 5.125676e-04 4.117556e-04 2.899343e-04
          2.047736e-04 -8.778663e-06 -1.326941e-04 5.866422e-04 -1.003384e-04 -1.676301e-04
          -5.327282e-05 -8.536709e-05 -9.712444e-05 -4.649026e-05 1.411493e-05 2.142541e-04
          -1.234015e-04 3.233103e-05 8.772098e-05 1.050010e-05 -6.139898e-05 -1.657404e-04
          1.387436e-05 -8.759611e-05 -9.212536e-05 -1.660955e-04 -1.075025e-04 -1.122591e-04
          -1.670715e-05 1.145740e-04 -6.845483e-05 -2.823678e-04 1.149824e-04 2.062999e-04
          1.932956e-04 2.122436e-04 7.391491e-05 1.173353e-04 3.260351e-05 1.649551e-05
          1.096605e-05 -2.037557e-06 7.702411e-05 1.200332e-04 1.880323e-04 2.445139e-04
          7.457629e-06 -1.775589e-04 -2.109428e-04 -1.772863e-04 -9.456954e-05 -9.753298e-08
          7.156692e-05 2.760638e-04 3.911007e-04 -3.222459e-04 8.242356e-05 4.762446e-05
          -5.959939e-05 -2.817118e-05 -1.388702e-05 -5.681552e-05 -1.086794e-04 -2.558166e-04
          1.739084e-05 1.752470e-04 2.357521e-04 1.567255e-04 7.805861e-05 -4.411768e-05
          3.419356e-05 -2.307395e-04 -2.646901e-04 -3.495196e-04 -2.911831e-04 -3.058957e-04
          -2.659973e-04 -1.678430e-04 -3.485114e-04 -5.477263e-04 -8.542034e-05 6.413602e-05
          5.556190e-05 7.351694e-05 -9.940574e-05 -1.675449e-04 -2.639917e-04 -2.807393e-04
          -2.804888e-04 -1.750695e-04 -7.483306e-05 -3.032060e-05 3.701985e-05 8.507924e-05
          -2.202950e-04 -4.603943e-04 -4.955285e-04 -4.616223e-04 -3.721863e-04 -2.603298e-04
          -1.751367e-04 2.816866e-05 1.542593e-04 -5.254372e-04 -5.573739e-05 -1.061826e-04
          -2.325737e-04 -2.061528e-04 -1.937971e-04 -2.383393e-04 -2.913517e-04 -4.423865e-04
          9.425636e-05 -1.265806e-04 -1.974678e-04 -8.742954e-05 1.407831e-05 1.630639e-04
          -1.666342e-04 -1.368601e-04 -2.330625e-04 -2.336929e-04 -3.374419e-04 -3.087930e-04
          -3.268688e-04 -4.441375e-04 -1.606239e-04 1.736708e-04 -2.499965e-04 -2.409488e-04
          -2.113694e-04 -2.442894e-04 -1.217357e-04 -4.291247e-04 -3.159367e-04 -2.917565e-04
          -2.703683e-04 2.268598e-05 -4.431896e-05 -1.045455e-04 -2.061873e-04 -3.089857e-04
          -1.247897e-04 1.188970e-05 5.375641e-05 3.386732e-06 -1.144447e-04 -2.357792e-04
          -3.186943e-04 -6.067477e-04 -7.455820e-04 3.039745e-04 -4.202539e-04 -5.233826e-04
          -4.117012e-04 -4.657893e-04 -4.864866e-04 -4.232540e-04 -3.457366e-04 -9.455257e-05
          -1.339791e-04 1.879056e-04 3.007505e-04 1.401473e-04 -1.160199e-05 -2.371614e-04
          1.197342e-04 -1.122704e-04 -7.984318e-05 -1.790861e-04 -4.705377e-05 -7.561936e-05
          1.876694e-05 2.283715e-04 -1.614090e-04 -6.109268e-04 1.711149e-04 3.199044e-04
          2.899224e-04 3.317872e-04 6.662233e-05 2.220321e-04 4.396033e-05 9.725450e-06
          -5.495972e-06 -1.099204e-04 4.091425e-05 1.298051e-04 2.723581e-04 3.957381e-04
          -5.127391e-05 -3.977513e-04 -4.646904e-04 -3.937260e-04 -2.191272e-04 -2.148375e-05
          1.234818e-04 5.434235e-04 7.744478e-04 -6.935570e-04 2.651608e-04 2.706941e-04
          6.150111e-05 1.287041e-04 1.571725e-04 6.645804e-05 -4.326842e-05 -3.726935e-04
          -1.401328e-04 -1.710342e-04 -1.830532e-04 -1.669412e-04 -1.474134e-04 -1.109082e-04
          -7.750550e-05 5.146558e-05 4.092342e-05 2.479857e-05 6.277274e-06 2.479556e-05
          1.037721e-04 1.365830e-04 1.772646e-04 2.149064e-04 1.336853e-04 1.149725e-04
          1.174747e-04 1.126309e-04 1.427055e-04 1.455733e-04 1.695303e-04 1.736824e-04
          1.744762e-04 1.703771e-04 1.529613e-04 1.438129e-04 1.299683e-04 1.187479e-04
          1.688666e-04 2.068376e-04 2.126461e-04 2.051594e-04 1.833210e-04 1.543630e-04
          1.354952e-04 9.952539e-05 7.712880e-05 1.921634e-04 -7.333168e-07 -3.748777e-05
          -1.499719e-05 -1.970734e-05 -2.071853e-05 -1.034761e-05 1.869469e-06 4.876576e-05
          -2.004128e-04 -1.714430e-04 -1.645781e-04 -1.777004e-04 -1.838788e-04 -1.831184e-04
          -4.616128e-05 9.157415e-05 1.016419e-04 7.701509e-05 8.474193e-05 1.027338e-04
          2.278405e-04 3.180846e-04 2.846904e-04 2.300994e-04 2.492150e-04 2.135133e-04
          2.065510e-04 2.104200e-04 2.132932e-04 3.257470e-04 3.230776e-04 3.209954e-04
          3.146798e-04 2.042799e-04 2.008237e-04 2.079269e-04 2.220555e-04 2.410928e-04
          2.563422e-04 2.699364e-04 2.650460e-04 2.709068e-04 2.790706e-04 2.793682e-04
          2.810755e-04 3.233076e-04 3.348277e-04 1.482916e-04 1.091393e-04 8.665634e-05
          7.959006e-05 9.019875e-05 9.559705e-05 8.953311e-05 8.144259e-05 6.558656e-05
          -1.910880e-04 -1.551329e-04 -1.462366e-04 -1.623061e-04 -1.710830e-04 -1.743517e-04
          -3.139894e-05 9.098138e-05 1.019681e-04 7.780154e-05 8.894502e-05 1.093327e-04
          2.546280e-04 3.615395e-04 3.211226e-04 2.551689e-04 2.672343e-04 2.102076e-04
          2.002463e-04 2.053334e-04 2.124087e-04 3.688380e-04 3.656355e-04 3.628644e-04
          3.540518e-04 1.972782e-04 1.903120e-04 1.994360e-04 2.175089e-04 2.433019e-04
          2.737917e-04 3.012221e-04 2.962505e-04 3.035920e-04 3.147816e-04 3.174585e-04
          3.206294e-04 3.704496e-04 3.808356e-04 1.471965e-04 1.149893e-04 9.454384e-05
          8.496655e-05 9.772417e-05 1.042111e-04 9.644617e-05 8.613656e-05 6.278787e-05
          -2.543181e-06 5.108488e-07 2.409394e-06 2.330233e-06 2.987201e-06 4.655217e-06
          -8.128608e-06 -5.470901e-05 -7.886513e-05 -1.003754e-04 -1.031286e-04 -8.901823e-05
          -5.570199e-06 4.879907e-05 5.459281e-05 5.294168e-05 3.130099e-05 1.922242e-06
          -1.788367e-06 -2.080737e-06 3.973956e-06 5.341045e-05 5.918543e-05 5.940974e-05
          5.685622e-05 5.948067e-06 2.077364e-07 1.448547e-06 3.894647e-06 1.023006e-05
          3.484518e-05 5.703169e-05 5.865958e-05 5.849076e-05 5.763208e-05 5.679845e-05
          5.786762e-05 5.893697e-05 5.110956e-05 4.012241e-06 -6.694924e-05 -1.013650e-04
          -1.075447e-04 -1.071828e-04 -1.056437e-04 -1.051197e-04 -1.046628e-04 -9.746510e-05
          1.793578e-04 1.648958e-04 1.648487e-04 1.728319e-04 1.754976e-04 1.710615e-04
          2.573693e-05 -1.888939e-04 -2.400047e-04 -2.577935e-04 -2.670026e-04 -2.629098e-04
          -2.501826e-04 -2.466914e-04 -2.153977e-04 -1.757769e-04 -1.945041e-04 -1.896310e-04
          -1.884274e-04 -1.918374e-04 -1.981022e-04 -2.461587e-04 -2.405792e-04 -2.391119e-04
          -2.362705e-04 -1.889946e-04 -1.869297e-04 -1.893876e-04 -1.956954e-04 -2.028707e-04
          -2.042092e-04 -2.030533e-04 -1.981698e-04 -2.022536e-04 -2.065416e-04 -2.016644e-04
          -1.964314e-04 -2.235685e-04 -2.379679e-04 -1.661948e-04 -2.160122e-04 -2.550810e-04
          -2.659052e-04 -2.743173e-04 -2.765060e-04 -2.722643e-04 -2.666083e-04 -2.471929e-04
          1.752729e-04 2.279461e-04 2.501402e-04 2.244923e-04 1.953356e-04 1.428728e-04
          8.178066e-05 -1.670876e-04 -1.923885e-04 -2.101498e-04 -1.877034e-04 -1.942532e-04
          -1.869653e-04 -1.544675e-04 -2.089559e-04 -2.685721e-04 -1.505120e-04 -1.409184e-04
          -1.481020e-04 -1.416405e-04 -1.895309e-04 -1.591686e-04 -1.896802e-04 -1.956364e-04
          -1.985148e-04 -2.246661e-04 -1.995455e-04 -1.835735e-04 -1.590984e-04 -1.362088e-04
          -2.022020e-04 -2.495693e-04 -2.575487e-04 -2.463072e-04 -2.138206e-04 -1.695356e-04
          -1.372660e-04 -7.745553e-05 -4.838254e-05 -2.893204e-04 -1.069805e-04 -1.150989e-04
          -1.622513e-04 -1.549446e-04 -1.512029e-04 -1.663916e-04 -1.844630e-04 -2.423962e-04
          1.114420e-04 4.052028e-05 1.605639e-05 5.239331e-05 8.584192e-05 1.326220e-04
          1.871064e-05 -7.164096e-06 -1.977344e-05 9.615889e-06 -1.759516e-05 -6.843874e-06
          6.926917e-07 -2.519086e-05 6.505862e-05 1.639476e-04 -5.968210e-05 -1.465793e-04
          -1.453177e-04 -1.539091e-04 -7.608425e-05 -2.580596e-05 1.931116e-05 2.685782e-05
          2.568784e-05 -4.452699e-05 -9.172922e-05 -1.107695e-04 -1.398056e-04 -1.579326e-04
          -6.489325e-06 1.158099e-04 1.342105e-04 1.184719e-04 7.978196e-05 3.592068e-05
          2.833978e-06 -9.487917e-05 -1.602974e-04 1.322326e-04 -9.259518e-05 -8.842542e-05
          -4.118733e-05 -5.536741e-05 -6.104670e-05 -4.077301e-05 -1.649903e-05 5.265094e-05
          2.772684e-05 1.261787e-04 1.582071e-04 1.100887e-04 6.506233e-05 -3.446572e-06
          1.123825e-04 2.978088e-05 6.599585e-05 7.109571e-05 1.186239e-04 1.110260e-04
          1.512263e-04 2.258961e-04 1.040536e-04 -4.505750e-05 9.649585e-05 4.253403e-05
          2.438778e-05 3.956472e-05 2.708618e-06 2.178797e-04 1.732010e-04 1.625110e-04
          1.488164e-04 -6.776452e-05 -5.071370e-05 -2.342284e-05 2.410836e-05 7.831767e-05
          4.496889e-05 2.639522e-05 1.108802e-05 3.338837e-05 8.548963e-05 1.389793e-04
          1.748388e-04 2.985729e-04 3.469976e-04 -1.510328e-04 1.527621e-04 2.005288e-04
          1.514910e-04 1.761897e-04 1.860472e-04 1.582186e-04 1.238662e-04 9.769697e-06
          7.774479e-05 2.137863e-05 1.194509e-06 3.042188e-05 5.792840e-05 9.727995e-05
          1.792951e-05 1.206512e-05 5.814084e-06 3.182064e-05 1.056781e-05 2.126505e-05
          3.998994e-05 2.757721e-05 9.926997e-05 1.752040e-04 -1.909380e-05 -1.045339e-04
          -1.049964e-04 -1.115264e-04 -4.185102e-05 2.721327e-05 6.552910e-05 7.164240e-05
          6.918432e-05 -1.799710e-05 -6.051385e-05 -7.578767e-05 -9.836451e-05 -1.100306e-04
          2.784851e-05 1.397123e-04 1.550330e-04 1.425195e-04 1.108680e-04 7.340560e-05
          4.493579e-05 -3.293203e-05 -8.845922e-05 1.333518e-04 -5.671076e-05 -5.025006e-05
          -9.729306e-06 -2.009932e-05 -2.416540e-05 -7.830605e-06 1.155487e-05 6.638566e-05
          8.613266e-05 4.348242e-05 3.106070e-05 5.351293e-05 7.305437e-05 9.907475e-05
          -1.057228e-05 -9.646685e-05 -1.356542e-04 -1.440513e-04 -1.654078e-04 -1.525082e-04
          -1.124695e-04 -1.061733e-04 -4.342356e-05 2.602294e-05 -8.425301e-05 -1.133720e-04
          -1.111181e-04 -1.177051e-04 -8.655283e-05 -1.024605e-04 -7.604614e-05 -7.112126e-05
          -6.926754e-05 -6.020031e-05 -7.953718e-05 -9.063220e-05 -1.090029e-04 -1.235552e-04
          -6.018076e-05 -8.526118e-06 2.207618e-06 -8.078460e-06 -3.110185e-05 -5.298385e-05
          -6.734026e-05 -1.279657e-04 -1.651580e-04 1.503038e-05 -1.598608e-04 -1.970505e-04
          -1.803838e-04 -1.917908e-04 -1.952178e-04 -1.823553e-04 -1.666382e-04 -1.149571e-04
          5.176145e-05 3.176064e-04 4.138119e-04 2.820325e-04 1.533565e-04 -4.542338e-05
          1.477421e-04 -2.237537e-04 -2.258411e-04 -3.120760e-04 -2.030126e-04 -2.265809e-04
          -1.465423e-04 3.055194e-05 -2.822549e-04 -6.411009e-04 -5.005382e-06 1.043031e-04
          7.743159e-05 1.116217e-04 -1.110818e-04 2.289519e-05 -1.246461e-04 -1.530694e-04
          -1.660330e-04 -2.612314e-04 -1.362470e-04 -6.176355e-05 5.677525e-05 1.612089e-04
          -2.010013e-04 -4.782018e-04 -5.309043e-04 -4.727531e-04 -3.255884e-04 -1.527281e-04
          -2.583632e-05 3.130972e-04 4.958303e-04 -7.188821e-04 8.431191e-05 7.656025e-05
          -1.076817e-04 -5.545719e-05 -3.251336e-05 -1.075575e-04 -1.980065e-04 -4.717314e-04
          1.438175e-04 2.073928e-05 -1.718241e-05 4.502907e-05 1.003681e-04 1.775664e-04
          -6.419741e-05 -1.549354e-04 -2.279656e-04 -2.330261e-04 -2.913397e-04 -2.721447e-04
          -2.624438e-04 -3.136532e-04 -1.487561e-04 4.429316e-05 -2.092713e-04 -2.240384e-04
          -2.099667e-04 -2.284937e-04 -1.577465e-04 -3.059230e-04 -2.408831e-04 -2.273575e-04
          -2.166916e-04 -7.974166e-05 -1.201261e-04 -1.530394e-04 -2.088517e-04 -2.626881e-04
          -1.439052e-04 -5.220358e-05 -2.668236e-05 -5.517346e-05 -1.198859e-04 -1.833586e-04
          -2.263046e-04 -3.920878e-04 -4.773433e-04 9.662258e-05 -3.179620e-04 -3.869275e-04
          -3.309194e-04 -3.627017e-04 -3.741521e-04 -3.386480e-04 -2.950289e-04 -1.544175e-04
          2.096766e-04 1.917050e-04 1.923913e-04 2.007705e-04 2.012982e-04 1.909382e-04
          8.597312e-06 -2.360120e-04 -2.950483e-04 -3.174616e-04 -3.290610e-04 -3.366989e-04
          -3.962747e-04 -4.411474e-04 -4.078908e-04 -3.533982e-04 -3.059082e-04 -2.268488e-04
          -2.183535e-04 -2.230763e-04 -2.601633e-04 -4.417985e-04 -4.459786e-04 -4.445012e-04
          -4.345614e-04 -2.443643e-04 -2.214997e-04 -2.248323e-04 -2.355619e-04 -2.565953e-04
          -3.321682e-04 -3.937615e-04 -3.917978e-04 -3.965430e-04 -3.988204e-04 -3.860336e-04
          -3.743600e-04 -4.043786e-04 -4.041238e-04 -2.622849e-04 -2.605925e-04 -3.038012e-04
          -3.223584e-04 -3.350854e-04 -3.394190e-04 -3.352459e-04 -3.289476e-04 -3.071657e-04
          2.549638e-04 3.015769e-04 3.259293e-04 3.011078e-04 2.676568e-04 2.027624e-04
          5.624591e-05 -2.825926e-04 -3.307830e-04 -3.613785e-04 -3.437557e-04 -3.694746e-04
          -4.806873e-04 -5.273189e-04 -5.758071e-04 -6.065233e-04 -3.719003e-04 -2.329523e-04
          -2.276293e-04 -2.237839e-04 -3.278007e-04 -5.337565e-04 -5.812187e-04 -5.872263e-04
          -5.775545e-04 -3.508641e-04 -2.886092e-04 -2.737563e-04 -2.568588e-04 -2.581275e-04
          -4.552598e-04 -6.129256e-04 -6.255676e-04 -6.156322e-04 -5.792191e-04 -5.190816e-04
          -4.737062e-04 -4.202175e-04 -3.667126e-04 -4.871470e-04 -2.203548e-04 -2.437994e-04
          -3.078696e-04 -3.089261e-04 -3.090249e-04 -3.242491e-04 -3.410497e-04 -3.935842e-04
          2.486411e-04 -3.041900e-05 -1.208604e-04 1.720832e-05 1.412864e-04 3.171918e-04
          -1.331469e-04 -1.432335e-04 -2.342929e-04 -1.916780e-04 -3.136877e-04 -2.973955e-04
          -4.317414e-04 -6.475566e-04 -2.986367e-04 1.224650e-04 -4.236763e-04 -4.230471e-04
          -3.862530e-04 -4.258375e-04 -2.646583e-04 -6.395293e-04 -5.025861e-04 -4.731950e-04
          -4.472482e-04 -9.739284e-05 -1.855996e-04 -2.612326e-04 -3.893116e-04 -5.175414e-04
          -2.728475e-04 -8.998118e-05 -3.629208e-05 -9.879992e-05 -2.431400e-04 -3.903987e-04
          -4.945982e-04 -8.614740e-04 -1.038226e-03 3.125159e-04 -4.774443e-04 -5.441766e-04
          -3.967909e-04 -4.649730e-04 -4.926143e-04 -4.146520e-04 -3.189041e-04 -2.313185e-05
          -5.185702e-05 1.855187e-04 2.682192e-04 1.491544e-04 3.519717e-05 -1.366234e-04
          1.159899e-04 -6.465807e-05 -2.565838e-05 -8.009273e-05 2.119140e-05 -1.032484e-05
          -1.242599e-07 1.177827e-04 -1.748043e-04 -5.064660e-04 7.634985e-05 1.928513e-04
          1.716251e-04 2.033235e-04 6.269179e-06 1.083009e-04 -2.716800e-05 -5.304266e-05
          -6.378766e-05 -1.294826e-04 -1.680359e-05 4.897790e-05 1.536216e-04 2.433544e-04
          -9.235878e-05 -3.531780e-04 -4.029395e-04 -3.500553e-04 -2.190697e-04 -7.019456e-05
          3.740890e-05 3.466379e-04 5.193793e-04 -5.441934e-04 2.254306e-04 2.581671e-04
          1.063362e-04 1.556853e-04 1.758386e-04 1.079749e-04 2.604755e-05 -2.262585e-04
          -1.318272e-04 -1.436999e-04 -1.516099e-04 -1.459476e-04 -1.367208e-04 -1.163059e-04
          -3.382512e-05 1.392194e-04 1.700043e-04 1.848335e-04 1.813045e-04 1.831927e-04
          1.832973e-04 1.760071e-04 1.819598e-04 1.849972e-04 1.415341e-04 1.252448e-04
          1.261574e-04 1.255914e-04 1.491133e-04 1.773382e-04 1.870126e-04 1.883525e-04
          1.871483e-04 1.563636e-04 1.435914e-04 1.394260e-04 1.339004e-04 1.308484e-04
          1.654196e-04 1.907406e-04 1.920477e-04 1.898661e-04 1.801462e-04 1.619264e-04
          1.477993e-04 1.381800e-04 1.314330e-04 1.772009e-04 1.294073e-04 1.497394e-04
          1.714773e-04 1.727481e-04 1.726911e-04 1.763013e-04 1.802276e-04 1.917582e-04
          -1.191646e-04 -1.640985e-04 -1.843611e-04 -1.626429e-04 -1.384237e-04 -9.575464e-05
          -3.847301e-05 1.834455e-04 2.241368e-04 2.606701e-04 2.456784e-04 2.447391e-04
          2.023553e-04 1.528034e-04 1.943911e-04 2.411713e-04 1.217397e-04 9.541190e-05
          1.001882e-04 9.579257e-05 1.468113e-04 1.525762e-04 1.782612e-04 1.829460e-04
          1.836195e-04 1.694916e-04 1.417406e-04 1.282159e-04 1.078183e-04 9.129568e-05
          1.680523e-04 2.252235e-04 2.328208e-04 2.237057e-04 1.968860e-04 1.584859e-04
          1.285152e-04 7.683880e-05 4.896351e-05 2.554601e-04 1.419465e-04 1.799745e-04
          2.266658e-04 2.215672e-04 2.182579e-04 2.306884e-04 2.451765e-04 2.852628e-04
          -9.583301e-05 5.894125e-05 1.097131e-04 3.152171e-05 -4.158626e-05 -1.486946e-04
          7.963704e-05 7.537895e-05 1.370055e-04 1.261329e-04 1.964010e-04 1.689805e-04
          1.365979e-04 1.882831e-04 -1.266602e-05 -2.402844e-04 1.264757e-04 1.920096e-04
          1.780288e-04 2.000362e-04 8.403714e-05 1.791067e-04 9.054686e-05 7.347638e-05
          6.492194e-05 -9.553436e-06 5.755303e-05 9.970133e-05 1.679732e-04 2.281694e-04
          2.575688e-05 -1.324740e-04 -1.656629e-04 -1.304340e-04 -4.573183e-05 4.519511e-05
          1.087122e-04 3.141445e-04 4.284378e-04 -2.624399e-04 2.765833e-04 3.371932e-04
          2.515017e-04 2.867541e-04 3.001048e-04 2.553279e-04 2.007947e-04 2.759347e-05
          1.490120e-05 -9.488234e-05 -1.333110e-04 -7.953974e-05 -2.920816e-05 4.621491e-05
          -6.462024e-05 5.101308e-05 4.533859e-05 7.826780e-05 3.277876e-05 3.436310e-05
          -4.672680e-05 -1.506529e-04 -2.224576e-05 1.335382e-04 -8.328326e-05 -8.189172e-05
          -6.655144e-05 -8.123283e-05 -1.069290e-05 -1.486769e-04 -9.534327e-05 -8.388974e-05
          -7.418056e-05 5.347934e-05 1.577533e-05 -1.468730e-05 -6.557201e-05 -1.162837e-04
          -1.558577e-05 5.795713e-05 7.771282e-05 5.368669e-05 -4.190472e-06 -6.821461e-05
          -1.150189e-04 -2.547766e-04 -3.202837e-04 2.165257e-04 -7.178201e-05 -7.050142e-05
          -1.488082e-06 -2.575134e-05 -3.635799e-05 -5.974924e-06 3.094554e-05 1.424340e-04
          -9.148134e-06 1.405416e-04 1.931258e-04 1.170435e-04 4.265645e-05 -7.120932e-05
          7.714526e-05 -4.033066e-05 -8.471698e-06 -3.459244e-05 3.089483e-05 1.877601e-07
          -5.600067e-05 -2.147503e-05 -2.106054e-04 -4.169161e-04 -1.284692e-05 9.806560e-05
          8.836067e-05 1.083421e-04 -3.078996e-05 -3.026517e-05 -1.230963e-04 -1.397718e-04
          -1.432153e-04 -1.172652e-04 -3.588380e-05 5.557723e-06 7.018988e-05 1.206733e-04
          -1.289515e-04 -3.257394e-04 -3.590854e-04 -3.253751e-04 -2.399935e-04 -1.407841e-04
          -6.976421e-05 1.265584e-04 2.450365e-04 -3.929547e-04 1.521684e-04 1.876164e-04
          8.995137e-05 1.197903e-04 1.313130e-04 8.757020e-05 3.491802e-05 -1.300218e-04
          -1.373349e-05 -7.272408e-05 -9.317462e-05 -6.439674e-05 -3.715739e-05 4.480383e-06
          -4.981845e-05 2.396029e-05 1.753688e-05 2.903026e-05 3.269949e-06 4.938273e-06
          -3.481425e-05 -8.892021e-05 -1.956810e-05 6.515635e-05 -3.855601e-05 -2.455756e-05
          -1.510100e-05 -2.333430e-05 9.026803e-06 -8.648229e-05 -5.869639e-05 -5.246081e-05
          -4.607107e-05 4.644313e-05 2.983601e-05 1.341391e-05 -1.448774e-05 -4.395457e-05
          -3.281615e-06 2.469653e-05 3.455219e-05 2.152089e-05 -9.782679e-06 -4.405913e-05
          -6.852944e-05 -1.425882e-04 -1.746938e-04 1.188129e-04 -4.392521e-05 -5.134362e-05
          -1.587902e-05 -2.931248e-05 -3.503744e-05 -1.858376e-05 1.473479e-06 6.411964e-05
          6.504544e-06 7.378153e-05 9.883821e-05 6.526350e-05 3.204494e-05 -1.931208e-05
          2.221962e-05 -7.827806e-05 -8.594783e-05 -1.158482e-04 -8.982425e-05 -9.671896e-05
          -8.293387e-05 -4.289863e-05 -1.212545e-04 -2.084858e-04 -2.277001e-05 3.000271e-05
          2.546694e-05 3.349792e-05 -3.439217e-05 -4.365009e-05 -8.373879e-05 -9.097246e-05
          -9.193737e-05 -6.875555e-05 -2.975208e-05 -1.074115e-05 1.820317e-05 4.047385e-05
          -7.746586e-05 -1.697797e-04 -1.843159e-04 -1.697565e-04 -1.318824e-04 -8.568272e-05
          -5.103560e-05 3.553843e-05 8.718148e-05 -2.066664e-04 -1.642162e-06 -1.418697e-05
          -6.499940e-05 -5.305415e-05 -4.760636e-05 -6.658862e-05 -8.937118e-05 -1.559223e-04
          1.219373e-04 1.817217e-04 2.078069e-04 1.782510e-04 1.454309e-04 8.901316e-05
          3.522788e-05 -2.085307e-04 -2.509770e-04 -2.950415e-04 -2.745277e-04 -2.800269e-04
          -2.638447e-04 -2.245342e-04 -2.849858e-04 -3.480848e-04 -1.592327e-04 -9.187560e-05
          -9.484669e-05 -8.902344e-05 -1.672546e-04 -2.248662e-04 -2.638240e-04 -2.703215e-04
          -2.685806e-04 -1.956735e-04 -1.511595e-04 -1.333005e-04 -1.078665e-04 -9.126595e-05
          -2.239283e-04 -3.268956e-04 -3.392370e-04 -3.268739e-04 -2.903252e-04 -2.385766e-04
          -1.985519e-04 -1.267103e-04 -8.047581e-05 -3.304118e-04 -1.469242e-04 -1.871176e-04
          -2.476937e-04 -2.411764e-04 -2.372804e-04 -2.542140e-04 -2.740633e-04 -3.295223e-04
          1.975953e-05 -1.854298e-05 -3.065910e-05 -1.037117e-05 9.134031e-06 3.835234e-05
          -2.602342e-05 -4.954150e-05 -7.964700e-05 -8.984724e-05 -1.096943e-04 -9.357221e-05
          -3.180668e-05 -1.048657e-05 4.519281e-05 1.025830e-04 -7.832774e-06 -4.490492e-05
          -4.370185e-05 -4.966215e-05 -1.475538e-05 -5.179193e-06 2.172077e-05 2.626490e-05
          2.670542e-05 1.070660e-05 -1.084874e-05 -2.103046e-05 -3.716770e-05 -4.856752e-05
          2.122571e-05 7.771736e-05 8.734455e-05 7.812353e-05 5.547786e-05 3.093145e-05
          1.477972e-05 -3.778993e-05 -7.248778e-05 7.598852e-05 -1.093606e-04 -1.459393e-04
          -1.269658e-04 -1.356879e-04 -1.382020e-04 -1.262515e-04 -1.118932e-04 -6.239687e-05
          -1.692151e-04 -1.657171e-04 -1.696456e-04 -1.694336e-04 -1.622806e-04 -1.417222e-04
          -1.717198e-05 1.521068e-04 1.775381e-04 1.811812e-04 1.825859e-04 2.042946e-04
          3.330931e-04 4.155549e-04 4.109717e-04 3.833701e-04 2.820676e-04 1.751956e-04
          1.653283e-04 1.671974e-04 2.184178e-04 4.206202e-04 4.384048e-04 4.389184e-04
          4.282942e-04 2.144111e-04 1.814763e-04 1.814207e-04 1.865735e-04 2.056544e-04
          3.184803e-04 4.119723e-04 4.151528e-04 4.158129e-04 4.088799e-04 3.879996e-04
          3.723251e-04 3.792776e-04 3.598655e-04 2.584694e-04 1.438595e-04 1.479733e-04
          1.676262e-04 1.758568e-04 1.797298e-04 1.808055e-04 1.809116e-04 1.841806e-04
          -2.044489e-04 -6.659346e-05 -2.467980e-05 -9.185681e-05 -1.486301e-04 -2.238728e-04
          6.017835e-05 1.520413e-04 2.112670e-04 1.944836e-04 2.551478e-04 2.581842e-04
          3.890468e-04 5.363103e-04 3.635619e-04 1.434939e-04 3.531042e-04 2.932475e-04
          2.698232e-04 2.902443e-04 2.400853e-04 5.345822e-04 4.773734e-04 4.632570e-04
          4.447086e-04 1.556224e-04 1.803309e-04 2.172079e-04 2.824509e-04 3.554953e-04
          2.990362e-04 2.620181e-04 2.377010e-04 2.685612e-04 3.353218e-04 3.960592e-04
          4.383939e-04 6.206151e-04 6.957853e-04 -1.668111e-05 3.113990e-04 3.489691e-04
          2.880200e-04 3.256904e-04 3.411889e-04 3.037028e-04 2.570442e-04 1.137366e-04
          -1.365384e-05 -1.333425e-04 -1.767910e-04 -1.166359e-04 -5.734348e-05 3.435539e-05
          -5.546039e-05 9.373725e-05 8.980699e-05 1.269121e-04 7.755023e-05 9.521691e-05
          1.009738e-04 4.846998e-05 1.929020e-04 3.524041e-04 3.096717e-05 -5.472081e-05
          -4.618784e-05 -6.144025e-05 5.293452e-05 5.282926e-05 1.249359e-04 1.379923e-04
          1.406727e-04 1.186590e-04 5.263741e-05 1.914992e-05 -3.266942e-05 -7.358596e-05
          1.258982e-04 2.820038e-04 3.078255e-04 2.814434e-04 2.136684e-04 1.327614e-04
          7.343142e-05 -8.127347e-05 -1.728316e-04 3.467077e-04 -5.059836e-05 -5.279324e-05
          3.186893e-05 9.383750e-06 -1.609437e-07 3.419172e-05 7.534934e-05 2.004824e-04
          -2.587813e-05 2.242696e-04 3.110727e-04 1.856461e-04 6.550572e-05 -1.165123e-04
          1.490595e-04 -4.933003e-05 7.469821e-07 -4.395823e-05 6.544207e-05 3.126992e-05
          3.875456e-05 1.621921e-04 -1.475885e-04 -5.011722e-04 8.548876e-05 1.793192e-04
          1.543863e-04 1.883541e-04 -6.356782e-06 1.498022e-04 9.215199e-06 -1.809527e-05
          -3.202899e-05 -1.553151e-04 -4.481098e-05 2.436707e-05 1.362724e-04 2.357488e-04
          -8.843111e-05 -3.381358e-04 -3.891142e-04 -3.330410e-04 -1.948935e-04 -3.925135e-05
          7.199720e-05 3.966221e-04 5.727575e-04 -5.625927e-04 2.602512e-04 3.115553e-04
          1.560594e-04 2.095280e-04 2.308017e-04 1.589858e-04 7.201252e-05 -1.993896e-04
          7.868221e-05 8.014200e-05 8.448993e-05 8.374815e-05 8.004993e-05 7.014944e-05
          -4.612381e-06 -1.312636e-04 -1.672682e-04 -1.910249e-04 -1.943273e-04 -1.937401e-04
          -1.898763e-04 -1.864851e-04 -1.798674e-04 -1.675242e-04 -1.224261e-04 -8.284266e-05
          -8.009492e-05 -8.165947e-05 -1.075383e-04 -1.846335e-04 -1.902436e-04 -1.904107e-04
          -1.863220e-04 -1.027120e-04 -8.746855e-05 -8.624259e-05 -8.660678e-05 -9.230995e-05
          -1.403561e-04 -1.787050e-04 -1.796620e-04 -1.799587e-04 -1.765193e-04 -1.652259e-04
          -1.549870e-04 -1.561364e-04 -1.498150e-04 -1.376350e-04 -1.370163e-04 -1.727231e-04
          -1.899270e-04 -1.939002e-04 -1.948210e-04 -1.952348e-04 -1.952780e-04 -1.904175e-04
          2.486615e-05 4.606331e-05 5.588247e-05 4.613205e-05 3.563155e-05 1.834859e-05
          -5.175450e-06 -1.054023e-04 -1.361474e-04 -1.677259e-04 -1.636352e-04 -1.576058e-04
          -1.066142e-04 -6.455602e-05 -8.067061e-05 -1.009240e-04 -3.726294e-05 -1.729030e-05
          -1.897916e-05 -1.773188e-05 -4.602178e-05 -6.105393e-05 -7.188731e-05 -7.384302e-05
          -7.340124e-05 -5.171325e-05 -3.623874e-05 -2.976310e-05 -2.068896e-05 -1.405877e-05
          -5.846281e-05 -9.224172e-05 -9.618812e-05 -9.233240e-05 -8.071964e-05 -6.350531e-05
          -4.879794e-05 -2.396350e-05 -9.803337e-06 -1.111072e-04 -9.329980e-05 -1.323530e-04
          -1.574047e-04 -1.555784e-04 -1.536223e-04 -1.588162e-04 -1.650511e-04 -1.770565e-04
          -2.021548e-04 -1.954980e-04 -1.988624e-04 -2.003149e-04 -1.943588e-04 -1.742562e-04
          -3.105042e-05 1.668096e-04 1.954088e-04 1.961654e-04 1.981959e-04 2.187518e-04
          3.423389e-04 4.220820e-04 4.122997e-04 3.799584e-04 2.992398e-04 2.081847e-04
          1.995026e-04 2.016402e-04 2.456948e-04 4.279580e-04 4.427068e-04 4.428754e-04
          4.332784e-04 2.422093e-04 2.139573e-04 2.147325e-04 2.203374e-04 2.382440e-04
          3.334037e-04 4.116652e-04 4.131828e-04 4.144766e-04 4.090725e-04 3.894515e-04
          3.748713e-04 3.875782e-04 3.742727e-04 2.669682e-04 1.626266e-04 1.656104e-04
          1.836937e-04 1.924307e-04 1.966420e-04 1.969440e-04 1.959842e-04 1.972654e-04
          -2.510727e-04 -2.638447e-04 -2.745618e-04 -2.669600e-04 -2.515508e-04 -2.152330e-04
          -6.546298e-05 2.042676e-04 2.373652e-04 2.414721e-04 2.347071e-04 2.542119e-04
          3.544180e-04 4.088541e-04 4.191271e-04 4.129042e-04 3.128416e-04 2.426501e-04
          2.387895e-04 2.382491e-04 2.884766e-04 4.161462e-04 4.384650e-04 4.406918e-04
          4.344278e-04 2.996928e-04 2.695943e-04 2.646265e-04 2.602606e-04 2.656432e-04
          3.593191e-04 4.334430e-04 4.368676e-04 4.339940e-04 4.179002e-04 3.856340e-04