<?xml version="1.0"?>
<VTKFile type="RectilinearGrid" version="0.1" byte_order="LittleEndian">
  <RectilinearGrid WholeExtent="0 47 0 47 0 47">
    <Piece Extent="0 47 0 47 0 47">
      <PointData Scalars="concentration">
        <DataArray type="Float32" Name="concentration" NumberOfComponents="1" format="ascii">
          7.766773e-05 1.004880e-04 1.093790e-04 9.993966e-05 9.014391e-05 7.350871e-05
          5.291057e-05 -6.819953e-05 -8.421428e-05 -9.335033e-05 -8.399774e-05 -7.353636e-05
          8.418305e-06 7.343630e-05 5.551496e-05 2.444533e-05 7.008852e-06 -5.924709e-05
          -6.918264e-05 -6.596387e-05 -5.821212e-05 7.310000e-05 7.138081e-05 6.899701e-05
          6.160502e-05 -7.704053e-05 -8.541134e-05 -7.833271e-05 -6.513999e-05 -4.358848e-05
          -7.576313e-07 3.989240e-05 4.032948e-05 4.478682e-05 5.535946e-05 6.742492e-05
          7.602636e-05 9.844547e-05 9.349937e-05 -6.259254e-05 -5.246193e-05 -6.373855e-05
          -7.885849e-05 -7.353539e-05 -7.013470e-05 -7.576239e-05 -8.260705e-05 -1.041712e-04
          1.337719e-04 1.531468e-04 1.608959e-04 1.537996e-04 1.456127e-04 1.297025e-04
          8.498635e-05 -7.926390e-05 -9.613226e-05 -9.618280e-05 -8.647084e-05 -7.328909e-05
          2.322908e-05 9.746841e-05 8.592793e-05 5.854018e-05 -5.212496e-06 -1.127914e-04
          -1.262431e-04 -1.228261e-04 -9.728589e-05 9.538661e-05 9.962139e-05 9.761604e-05
          8.695757e-05 -1.200130e-04 -1.403779e-04 -1.340054e-04 -1.206384e-04 -9.381107e-05
          -6.910062e-06 7.143411e-05 7.515046e-05 7.885354e-05 8.736175e-05 9.672662e-05
          1.023432e-04 1.168411e-04 9.922741e-05 -6.284869e-05 -6.793802e-05 -7.133897e-05
          -8.207798e-05 -7.678733e-05 -7.329852e-05 -7.784203e-05 -8.356993e-05 -1.050038e-04
          1.205020e-04 3.306760e-04 4.042249e-04 3.018162e-04 2.025077e-04 4.856113e-05
          2.067813e-04 -1.124286e-04 -9.000413e-05 -1.216245e-04 -2.808266e-05 -3.915654e-05
          7.362046e-05 2.490305e-04 1.930120e-06 -2.962641e-04 7.112987e-05 1.875702e-05
          -1.527031e-05 1.445906e-05 -1.017114e-04 2.372844e-04 1.363348e-04 1.136574e-04
          9.088869e-05 -2.396464e-04 -1.803674e-04 -1.212638e-04 -2.203776e-05 8.334808e-05
          -6.014626e-05 -1.579390e-04 -1.921760e-04 -1.457447e-04 -3.240097e-05 9.427120e-05
          1.833628e-04 4.445072e-04 5.571762e-04 -4.803581e-04 1.341258e-04 1.722878e-04
          4.464045e-05 9.117262e-05 1.112612e-04 5.218032e-05 -1.974401e-05 -2.486963e-04
          1.516488e-04 -2.716483e-05 -8.898733e-05 2.049766e-06 8.757124e-05 2.131188e-04
          -2.556699e-05 8.088696e-06 -2.741763e-05 2.524325e-05 -4.833562e-05 -1.952203e-05
          5.271259e-06 -6.001588e-05 1.659792e-04 4.158922e-04 -9.110010e-05 -2.501076e-04
          -2.411976e-04 -2.639814e-04 -9.004481e-05 -5.598504e-05 5.368056e-05 7.301544e-05
          7.508833e-05 2.254628e-06 -1.007865e-04 -1.495881e-04 -2.255752e-04 -2.814760e-04
          4.122109e-05 2.984269e-04 3.407643e-04 3.007742e-04 2.017831e-04 8.959939e-05
          6.920064e-06 -2.331911e-04 -3.824313e-04 3.801251e-04 -2.128030e-04 -2.279519e-04
          -1.115616e-04 -1.481423e-04 -1.625366e-04 -1.112008e-04 -4.925994e-05 1.357165e-04
          1.545588e-06 1.471148e-04 1.967411e-04 1.246241e-04 5.594459e-05 -4.787508e-05
          1.090454e-04 -1.418389e-05 1.877333e-05 1.250339e-07 6.515248e-05 4.977039e-05
          8.168889e-05 1.718913e-04 -6.872771e-06 -2.164520e-04 8.127405e-05 9.160648e-05
          7.289897e-05 9.356379e-05 -1.130113e-06 1.639273e-04 8.791465e-05 7.210100e-05
          6.002771e-05 -9.237842e-05 -4.073763e-05 -4.266146e-07 6.626372e-05 1.313564e-04
          -1.160607e-05 -1.181820e-04 -1.453796e-04 -1.128512e-04 -3.389269e-05 5.293236e-05
          1.140142e-04 3.005608e-04 3.925046e-04 -2.947459e-04 1.640456e-04 2.014203e-04
          1.159037e-04 1.484874e-04 1.617820e-04 1.203149e-04 7.005830e-05 -8.969931e-05
          -8.315987e-05 6.507705e-05 1.152440e-04 4.076561e-05 -2.915192e-05 -1.322718e-04
          6.296139e-05 1.531862e-05 5.363561e-05 2.586889e-05 9.002839e-05 6.954760e-05
          7.184903e-05 1.421532e-04 -4.438109e-05 -2.571272e-04 1.021790e-04 1.717665e-04
          1.585228e-04 1.788150e-04 6.089140e-05 1.362461e-04 5.247648e-05 3.632308e-05
          2.903303e-05 -2.402077e-05 4.359647e-05 8.417996e-05 1.495804e-04 2.060241e-04
          2.612156e-06 -1.562190e-04 -1.878220e-04 -1.546203e-04 -7.384419e-05 1.512288e-05
          7.892880e-05 2.743797e-04 3.836209e-04 -2.825108e-04 1.990911e-04 2.303391e-04
          1.413694e-04 1.737830e-04 1.866901e-04 1.441972e-04 9.300315e-05 -6.597059e-05
          -2.338297e-05 -2.531717e-04 -3.335347e-04 -2.191308e-04 -1.089671e-04 5.944486e-05
          -1.563175e-04 8.508788e-05 5.057549e-05 9.472665e-05 -5.298501e-06 2.048487e-05
          -1.892480e-05 -1.540964e-04 1.253005e-04 4.479802e-04 -6.284132e-05 -1.191837e-04
          -9.317228e-05 -1.244118e-04 4.526715e-05 -1.429874e-04 -1.777282e-05 7.022222e-06
          2.220859e-05 1.844466e-04 8.969571e-05 2.579610e-05 -7.812746e-05 -1.745814e-04
          9.515591e-05 2.995933e-04 3.441678e-04 2.929480e-04 1.665002e-04 2.338106e-05
          -7.896103e-05 -3.735771e-04 -5.262314e-04 5.368285e-04 -1.938518e-04 -2.325770e-04
          -8.784547e-05 -1.367094e-04 -1.567453e-04 -9.135711e-05 -1.175333e-05 2.360410e-04
          -5.993924e-05 2.534622e-04 3.618008e-04 2.060951e-04 5.825834e-05 -1.636216e-04
          1.773430e-04 -7.168204e-05 -2.069470e-05 -8.890146e-05 4.548112e-05 1.506044e-05
          9.592309e-05 2.956116e-04 -8.648344e-05 -5.308837e-04 1.689576e-04 2.509997e-04
          2.161481e-04 2.586134e-04 2.816940e-05 2.837640e-04 1.155875e-04 8.175658e-05
          6.123490e-05 -1.562636e-04 -2.755632e-05 5.915527e-05 2.003767e-04 3.308734e-04
          -3.930067e-05 -3.213213e-04 -3.831810e-04 -3.135998e-04 -1.435732e-04 4.611009e-05
          1.825216e-04 5.875728e-04 7.984887e-04 -6.566372e-04 3.038545e-04 3.469402e-04
          1.529728e-04 2.207399e-04 2.489304e-04 1.600610e-04 5.256727e-05 -2.798115e-04
          7.228387e-05 3.331789e-05 2.018031e-05 4.123068e-05 6.089134e-05 8.910531e-05
          1.724126e-05 -2.582000e-05 -4.337687e-05 -3.363071e-05 -4.985998e-05 -3.517490e-05
          2.049376e-05 3.944927e-05 9.427100e-05 1.481446e-04 -8.140792e-06 -9.081839e-05
          -9.369788e-05 -9.847635e-05 -4.327366e-05 4.078089e-05 7.182360e-05 7.614683e-05
          7.254376e-05 -2.647871e-05 -6.125598e-05 -7.157166e-05 -8.615604e-05 -9.031016e-05
          2.708123e-05 1.240959e-04 1.363680e-04 1.273075e-04 1.042611e-04 7.762254e-05
          5.785785e-05 1.601417e-06 -4.388446e-05 8.845444e-05 -8.118857e-05 -9.204874e-05
          -6.599056e-05 -7.331641e-05 -7.547193e-05 -6.373353e-05 -4.952664e-05 -7.619664e-06
          1.326897e-04 1.544910e-04 1.627810e-04 1.539832e-04 1.440851e-04 1.252862e-04
          8.949245e-05 -6.086806e-05 -6.907644e-05 -6.270687e-05 -5.067313e-05 -4.228983e-05
          2.853919e-05 8.770734e-05 7.004233e-05 3.819940e-05 -1.159543e-05 -1.094323e-04
          -1.221454e-04 -1.181064e-04 -9.662864e-05 8.400696e-05 8.449803e-05 8.221448e-05
          7.202807e-05 -1.219662e-04 -1.393859e-04 -1.325899e-04 -1.183842e-04 -9.201879e-05
          -1.645410e-05 5.217488e-05 5.466850e-05 5.921929e-05 6.984371e-05 8.141650e-05
          8.801766e-05 1.066569e-04 9.379295e-05 -6.946370e-05 -4.149198e-05 -3.302279e-05
          -4.380853e-05 -3.783955e-05 -3.451554e-05 -4.012432e-05 -4.714685e-05 -7.461592e-05
          2.117004e-04 2.427215e-04 2.545204e-04 2.414229e-04 2.260604e-04 1.960705e-04
          1.390247e-04 -7.971296e-05 -8.420947e-05 -6.631105e-05 -4.738412e-05 -4.153663e-05
          2.446614e-05 8.703076e-05 5.899446e-05 1.406352e-05 -4.744525e-05 -1.770515e-04
          -1.941558e-04 -1.880787e-04 -1.608410e-04 7.941297e-05 7.684770e-05 7.348660e-05
          5.979017e-05 -1.993437e-04 -2.215192e-04 -2.118884e-04 -1.919728e-04 -1.560244e-04
          -5.809910e-05 3.134160e-05 3.438371e-05 4.117440e-05 5.775722e-05 7.650204e-05
          8.680132e-05 1.134850e-04 9.798160e-05 -1.213363e-04 -4.564710e-05 -1.968542e-05
          -3.457417e-05 -2.632162e-05 -2.220908e-05 -3.068581e-05 -4.141615e-05 -8.531574e-05
          2.685455e-04 2.723888e-04 2.751650e-04 2.756863e-04 2.723171e-04 2.583774e-04
          1.498884e-04 -8.876535e-05 -9.769166e-05 -6.665131e-05 -5.776027e-05 -5.041391e-05
          3.485752e-06 4.678378e-05 5.265982e-05 4.691791e-05 -9.229634e-05 -2.472104e-04
          -2.631598e-04 -2.603978e-04 -2.068625e-04 3.808932e-05 5.093284e-05 5.045012e-05
          3.705073e-05 -2.338419e-04 -2.714549e-04 -2.691174e-04 -2.606200e-04 -2.329232e-04
          -8.553473e-05 4.375234e-05 5.349862e-05 5.435517e-05 5.689220e-05 6.061920e-05
          5.934793e-05 4.843965e-05 9.722226e-06 -8.991260e-05 -8.525197e-05 -5.458457e-05
          -5.241063e-05 -5.005139e-05 -4.846478e-05 -4.941164e-05 -5.117703e-05 -6.997420e-05
          3.059117e-04 2.988217e-04 2.983889e-04 3.046350e-04 3.060632e-04 2.980745e-04
          1.573868e-04 -1.119871e-04 -1.287742e-04 -9.582361e-05 -9.153193e-05 -8.149848e-05
          -2.028877e-05 2.325129e-05 4.492449e-05 5.638654e-05 -1.191578e-04 -2.899974e-04
          -3.061830e-04 -3.049396e-04 -2.398534e-04 1.455916e-05 3.465144e-05 3.536756e-05
          2.173417e-05 -2.621874e-04 -3.069105e-04 -3.073149e-04 -3.031883e-04 -2.778480e-04
          -1.057208e-04 4.415005e-05 5.713994e-05 5.546242e-05 5.225859e-05 5.042739e-05
          4.512511e-05 1.796900e-05 -3.230274e-05 -8.889183e-05 -1.233004e-04 -9.683537e-05
          -8.943478e-05 -8.975880e-05 -8.907897e-05 -8.682557e-05 -8.484111e-05 -9.214535e-05
          2.666169e-04 3.291881e-04 3.531653e-04 3.243741e-04 2.926479e-04 2.354739e-04
          1.756578e-04 -1.331223e-04 -1.416984e-04 -1.311417e-04 -9.844626e-05 -9.662795e-05
          -2.726185e-05 5.348558e-05 -1.035375e-05 -9.553664e-05 -8.766384e-05 -2.115618e-04
          -2.327663e-04 -2.226726e-04 -2.206421e-04 4.348048e-05 2.310435e-05 1.630487e-05
          6.666880e-07 -2.798565e-04 -2.879817e-04 -2.691761e-04 -2.348384e-04 -1.852249e-04
          -1.245386e-04 -6.228099e-05 -6.468448e-05 -5.093991e-05 -1.594259e-05 2.578082e-05
          5.264857e-05 1.173906e-04 1.208323e-04 -2.436300e-04 -6.133658e-05 -3.361114e-05
          -7.225988e-05 -5.837289e-05 -5.181109e-05 -6.932706e-05 -9.123582e-05 -1.696893e-04
          2.226372e-04 1.622059e-04 1.437810e-04 1.758914e-04 2.029619e-04 2.363627e-04
          6.371652e-05 -1.041387e-04 -1.391669e-04 -1.174085e-04 -1.407344e-04 -1.250414e-04
          -7.849972e-05 -7.238777e-05 1.397258e-05 1.047950e-04 -1.279609e-04 -2.485836e-04
          -2.527185e-04 -2.602379e-04 -1.819444e-04 -7.411420e-05 -3.056455e-05 -2.401277e-05
          -2.850393e-05 -1.607992e-04 -2.100407e-04 -2.254885e-04 -2.481150e-04 -2.555850e-04
          -8.506860e-05 5.728419e-05 7.690647e-05 6.308055e-05 3.067376e-05 -2.520972e-06
          -2.789020e-05 -1.188345e-04 -1.895625e-04 3.072675e-05 -1.843187e-04 -1.932175e-04
          -1.590446e-04 -1.725204e-04 -1.770633e-04 -1.594191e-04 -1.385227e-04 -7.939017e-05
          1.516435e-04 2.599876e-04 2.998877e-04 2.472835e-04 1.941329e-04 1.079260e-04
          1.338982e-04 -1.297446e-04 -1.338743e-04 -1.524020e-04 -1.041798e-04 -1.098799e-04
          -5.052538e-05 4.234976e-05 -8.035147e-05 -2.275045e-04 -4.342759e-05 -7.825510e-05
          -9.704291e-05 -8.214964e-05 -1.437037e-04 3.488644e-05 -1.752672e-05 -2.924006e-05
          -4.122268e-05 -2.175859e-04 -1.865487e-04 -1.555420e-04 -1.038063e-04 -4.787331e-05
          -1.180602e-04 -1.633211e-04 -1.795862e-04 -1.557765e-04 -9.570344e-05 -2.499896e-05
          2.494945e-05 1.554092e-04 2.090312e-04 -3.280993e-04 -4.323211e-06 8.762333e-06
          -6.344025e-05 -4.119755e-05 -3.127236e-05 -6.176343e-05 -9.908422e-05 -2.180364e-04
          1.811025e-04 1.298844e-04 1.137089e-04 1.403141e-04 1.626130e-04 1.899245e-04
          5.591245e-05 -5.831592e-05 -7.610470e-05 -4.853357e-05 -6.659645e-05 -5.927880e-05
          -5.408857e-05 -7.079787e-05 -1.999794e-06 7.325231e-05 -1.124963e-04 -2.021403e-04
          -2.042126e-04 -2.102317e-04 -1.467809e-04 -7.406327e-05 -4.015824e-05 -3.477254e-05
          -3.768532e-05 -1.302340e-04 -1.694009e-04 -1.827268e-04 -2.023681e-04 -2.107539e-04
          -7.762313e-05 3.278891e-05 4.843862e-05 3.705566e-05 1.044958e-05 -1.717564e-05
          -3.902557e-05 -1.145400e-04 -1.701049e-04 3.019499e-05 -1.195534e-04 -1.116761e-04
          -8.024476e-05 -9.137228e-05 -9.566448e-05 -8.123468e-05 -6.410493e-05 -1.833898e-05
          1.573958e-04 1.126591e-04 9.755068e-05 1.202415e-04 1.392473e-04 1.622893e-04
          6.105060e-05 -6.832300e-06 -5.127485e-06 3.426280e-05 2.135044e-05 2.124217e-05
          -1.066816e-05 -4.811900e-05 6.618279e-06 6.865199e-05 -9.460717e-05 -1.728958e-04
          -1.744302e-04 -1.788504e-04 -1.203226e-04 -5.385957e-05 -2.619497e-05 -2.165474e-05
          -2.450741e-05 -1.095830e-04 -1.451388e-04 -1.571114e-04 -1.742168e-04 -1.815811e-04
          -6.326701e-05 3.414090e-05 4.739163e-05 3.789475e-05 1.538565e-05 -9.238581e-06
          -3.005894e-05 -9.490899e-05 -1.415771e-04 4.154274e-05 -5.181653e-05 -2.109162e-05
          1.137627e-05 2.596428e-06 -1.441264e-06 1.052785e-05 2.483270e-05 5.804611e-05
          9.826447e-05 3.607216e-04 4.516699e-04 3.209015e-04 1.938231e-04 -2.973877e-06
          2.338585e-04 -6.186598e-05 -1.765952e-06 -2.286791e-05 9.717947e-05 6.025490e-05
          6.663855e-05 1.987535e-04 -1.250086e-04 -4.982236e-04 4.743054e-05 7.342803e-05
          4.016438e-05 7.750620e-05 -9.830705e-05 1.797243e-04 3.776489e-05 9.065141e-06
          -1.190407e-05 -2.687134e-04 -1.718951e-04 -9.902878e-05 2.138690e-05 1.379697e-04
          -1.300756e-04 -3.294881e-04 -3.783441e-04 -3.192850e-04 -1.736497e-04 -1.011248e-05
          1.039635e-04 4.377326e-04 6.044279e-04 -6.179967e-04 2.681618e-04 3.529500e-04
          1.953791e-04 2.526650e-04 2.754894e-04 1.998433e-04 1.080180e-04 -1.882630e-04
          1.716131e-04 4.551848e-05 1.866979e-06 6.522399e-05 1.231777e-04 2.050536e-04
          2.099511e-05 2.356062e-05 1.498982e-05 7.516627e-05 2.791743e-05 3.715406e-05
          -6.786875e-06 -9.012783e-05 6.375433e-05 2.390731e-04 -1.207312e-04 -2.353575e-04
          -2.292309e-04 -2.443529e-04 -1.191624e-04 -9.304977e-05 -1.971154e-05 -6.344891e-06
          -5.269351e-06 -6.206409e-05 -1.355568e-04 -1.700992e-04 -2.232712e-04 -2.620664e-04
          -3.185772e-05 1.520318e-04 1.820588e-04 1.545004e-04 8.725535e-05 1.166690e-05
          -4.618391e-05 -2.165995e-04 -3.212930e-04 2.302045e-04 -1.192129e-04 -9.600937e-05
          -1.087840e-05 -3.652709e-05 -4.754891e-05 -1.244914e-05 2.987560e-05 1.486145e-04
          1.840230e-04 1.699131e-04 1.651739e-04 1.734779e-04 1.790380e-04 1.814298e-04
          1.038534e-04 -1.935476e-05 -1.435485e-05 2.262320e-05 2.378276e-05 2.654228e-05
          3.740475e-05 4.301399e-05 6.345440e-05 7.949986e-05 -6.011501e-05 -1.769962e-04
          -1.864433e-04 -1.861590e-04 -1.318413e-04 3.555694e-05 5.264958e-05 5.417478e-05
          4.525832e-05 -1.438615e-04 -1.793073e-04 -1.826424e-04 -1.839980e-04 -1.709244e-04
          -4.216803e-05 6.773310e-05 7.761801e-05 7.485089e-05 6.781964e-05 5.906557e-05
          4.891964e-05 2.060865e-05 -1.722763e-05 -6.342920e-06 -3.094144e-05 6.251718e-06
          2.260266e-05 2.168559e-05 2.117789e-05 2.486450e-05 2.884986e-05 2.867491e-05
          1.969251e-04 2.529146e-04 2.726259e-04 2.465952e-04 2.194681e-04 1.721537e-04
          1.579908e-04 -5.148237e-05 -3.977224e-05 -1.807492e-05 1.326572e-05 1.309388e-05
          6.478012e-05 1.303713e-04 6.809035e-05 -1.541701e-05 -2.199089e-05 -1.453798e-04
          -1.651061e-04 -1.551784e-04 -1.435556e-04 1.202070e-04 1.028591e-04 9.701229e-05
          8.142900e-05 -1.991031e-04 -2.119524e-04 -1.956999e-04 -1.644099e-04 -1.180285e-04
          -4.789084e-05 1.996245e-05 1.759923e-05 3.030417e-05 6.081522e-05 9.374456e-05
          1.133837e-04 1.735391e-04 1.760742e-04 -1.552938e-04 1.801599e-05 6.225894e-05
          3.536249e-05 4.995246e-05 5.612940e-05 4.024490e-05 2.029515e-05 -5.390313e-05
          2.638090e-04 -6.380468e-06 -9.953083e-05 3.755170e-05 1.658186e-04 3.523911e-04
          -1.936312e-05 1.264545e-05 -3.584904e-05 5.262607e-05 -5.672154e-05 -1.699002e-05
          -9.533102e-07 -1.119699e-04 2.277308e-04 6.051552e-04 -1.648641e-04 -4.099230e-04
          -3.969539e-04 -4.311215e-04 -1.659424e-04 -1.083519e-04 5.569719e-05 8.517574e-05
          8.782954e-05 -3.045983e-05 -1.870543e-04 -2.608972e-04 -3.751970e-04 -4.586601e-04
          3.306634e-05 4.256569e-04 4.897966e-04 4.297277e-04 2.814085e-04 1.136277e-04
          -1.094394e-05 -3.745128e-04 -6.010231e-04 5.536817e-04 -3.160379e-04 -3.261978e-04
          -1.498476e-04 -2.049697e-04 -2.271242e-04 -1.499328e-04 -5.715968e-05 2.176841e-04
          1.644187e-04 4.076377e-04 4.922322e-04 3.732353e-04 2.577321e-04 7.759547e-05
          2.623230e-04 -1.043561e-04 -6.536474e-05 -8.703770e-05 2.414303e-05 6.553417e-06
          1.100118e-04 2.970149e-04 7.438854e-06 -3.405695e-04 7.309879e-05 6.548998e-07
          -3.966782e-05 -4.474586e-06 -1.321727e-04 2.802398e-04 1.622650e-04 1.362495e-04
          1.086447e-04 -2.972050e-04 -2.323221e-04 -1.641620e-04 -4.860794e-05 7.535282e-05
          -7.804830e-05 -1.806850e-04 -2.199480e-04 -1.657109e-04 -3.357276e-05 1.131586e-04
          2.148614e-04 5.168170e-04 6.453888e-04 -5.550113e-04 1.884378e-04 2.544487e-04
          1.105233e-04 1.653324e-04 1.882681e-04 1.194647e-04 3.529766e-05 -2.364546e-04
          1.284860e-04 1.165702e-04 1.122450e-04 1.199761e-04 1.263820e-04 1.326354e-04
          7.725377e-05 -1.771617e-05 -1.963836e-05 3.182757e-06 2.480121e-06 1.229429e-05
          6.352252e-05 9.452696e-05 1.149514e-04 1.269778e-04 -7.753867e-06 -1.237231e-04
          -1.332616e-04 -1.332000e-04 -8.072267e-05 9.084389e-05 1.095425e-04 1.110506e-04
          1.020198e-04 -8.889368e-05 -1.236804e-04 -1.264082e-04 -1.269758e-04 -1.131814e-04
          1.316060e-05 1.207541e-04 1.300326e-04 1.273890e-04 1.196103e-04 1.088492e-04
          9.848653e-05 7.440309e-05 3.784674e-05 2.851918e-05 -3.449841e-05 -1.664338e-05
          -2.189655e-06 -2.284193e-06 -1.965798e-06 1.839927e-06 5.876255e-06 1.074387e-05
          9.276666e-05 4.182224e-05 2.317462e-05 4.983903e-05 7.494820e-05 1.108667e-04
          4.057509e-05 3.009134e-05 3.225710e-05 6.667900e-05 4.967529e-05 6.011804e-05
          8.275037e-05 7.618670e-05 1.402521e-04 2.049094e-04 -2.528705e-06 -1.127082e-04
          -1.160736e-04 -1.212903e-04 -4.371908e-05 7.403739e-05 1.117340e-04 1.173089e-04
          1.119939e-04 -2.763708e-05 -7.532461e-05 -8.910402e-05 -1.079706e-04 -1.130525e-04
          4.513935e-05 1.749317e-04 1.905472e-04 1.794016e-04 1.503060e-04 1.145164e-04
          8.606139e-05 1.428550e-05 -4.314963e-05 1.396897e-04 -2.990417e-05 -1.005157e-05
          3.129272e-05 2.332830e-05 2.002871e-05 3.458222e-05 5.178896e-05 9.711351e-05
          9.526873e-05 2.436486e-04 2.939661e-04 2.213278e-04 1.512734e-04 4.262846e-05
          1.759144e-04 -1.495833e-05 2.542818e-05 2.689609e-05 9.756511e-05 8.434999e-05
          1.345420e-04 2.408027e-04 6.025768e-05 -1.577597e-04 7.387155e-05 9.362202e-06
          -1.675779e-05 5.496001e-06 -6.079147e-05 2.284504e-04 1.579072e-04 1.418526e-04
          1.229238e-04 -1.663535e-04 -1.337146e-04 -9.222984e-05 -2.091960e-05 5.811790e-05
          -1.283819e-05 -5.682194e-05 -8.000150e-05 -4.665668e-05 3.356330e-05 1.201965e-04
          1.788074e-04 3.634405e-04 4.387325e-04 -3.007371e-04 1.692698e-04 2.312332e-04
          1.503117e-04 1.854909e-04 1.997287e-04 1.573645e-04 1.055074e-04 -6.587052e-05
          1.545506e-04 3.848328e-05 -2.721049e-06 5.682824e-05 1.125697e-04 1.930581e-04
          3.529552e-05 3.877409e-05 3.175061e-05 8.928838e-05 4.627893e-05 6.448852e-05
          8.084403e-05 4.093277e-05 1.858274e-04 3.414329e-04 -4.623428e-05 -2.096818e-04
          -2.093496e-04 -2.227650e-04 -8.318588e-05 3.925832e-05 1.155085e-04 1.280529e-04
          1.238834e-04 -3.454277e-05 -1.185484e-04 -1.501096e-04 -1.968178e-04 -2.230058e-04
          4.821296e-05 2.678397e-04 2.985800e-04 2.729836e-04 2.084037e-04 1.325601e-04
          7.426843e-05 -8.477239e-05 -1.951194e-04 2.713517e-04 -9.877859e-05 -7.810626e-05
          6.042323e-06 -1.528299e-05 -2.407245e-05 8.920223e-06 4.835804e-05 1.590113e-04
          5.135630e-05 1.960685e-04 2.451998e-04 1.741375e-04 1.062133e-04 2.270622e-06
          1.453572e-04 -1.303648e-05 2.300707e-05 1.533181e-05 8.231350e-05 7.003664e-05
          1.212029e-04 2.250688e-04 4.883667e-05 -1.627001e-04 8.601766e-05 4.696142e-05
          2.372739e-05 4.489141e-05 -2.919159e-05 2.150895e-04 1.446162e-04 1.290191e-04
          1.126533e-04 -1.272458e-04 -8.910008e-05 -4.879391e-05 1.969719e-05 9.277774e-05
          -1.485680e-07 -6.357466e-05 -8.772038e-05 -5.531550e-05 2.262802e-05 1.070067e-04
          1.650624e-04 3.472179e-04 4.264835e-04 -2.844628e-04 1.643535e-04 2.135180e-04
          1.325255e-04 1.663274e-04 1.801388e-04 1.389517e-04 8.870648e-05 -7.429810e-05
          1.002906e-04 3.637131e-05 1.362108e-05 4.683570e-05 7.795948e-05 1.226945e-04
          3.081128e-05 1.770652e-05 1.262502e-05 4.598192e-05 2.266919e-05 3.539363e-05
          6.069366e-05 4.964116e-05 1.309418e-04 2.156292e-04 -1.800348e-05 -1.289556e-04
          -1.308080e-04 -1.379716e-04 -5.297880e-05 4.850922e-05 9.327225e-05 1.002407e-04
          9.612327e-05 -2.820833e-05 -8.008168e-05 -9.737719e-05 -1.222362e-04 -1.331850e-04
          3.709427e-05 1.760567e-04 1.942293e-04 1.800686e-04 1.439516e-04 1.010279e-04
          6.779462e-05 -2.121936e-05 -8.731965e-05 1.560025e-04 -5.978562e-05 -4.782202e-05
          -2.784045e-07 -1.152636e-05 -1.598862e-05 2.340855e-06 2.422545e-05 8.484071e-05
          1.406731e-04 2.048698e-04 2.270823e-04 1.966353e-04 1.658786e-04 1.150381e-04
          1.313471e-04 -3.857885e-05 -2.475115e-05 -1.234345e-05 2.091075e-05 1.853656e-05
          6.275794e-05 1.256919e-04 5.174672e-05 -4.285113e-05 -1.541695e-08 -8.826643e-05
          -1.055832e-04 -9.505078e-05 -1.018276e-04 1.172555e-04 9.272008e-05 8.573211e-05
          7.247383e-05 -1.567467e-04 -1.578915e-04 -1.394294e-04 -1.060375e-04 -6.183214e-05
          -3.346555e-05 -1.038908e-06 -7.021206e-06 7.378319e-06 4.209820e-05 7.977962e-05
          1.038100e-04 1.776363e-04 1.942567e-04 -1.576786e-04 4.032171e-05 7.803725e-05
          4.497742e-05 6.083872e-05 6.753730e-05 4.930676e-05 2.676420e-05 -5.266707e-05
          1.131604e-04 1.734840e-04 1.948198e-04 1.656672e-04 1.360183e-04 8.729929e-05
          1.026929e-04 -4.695791e-05 -3.761008e-05 -3.291287e-05 -3.066227e-06 -8.316085e-06
          1.461484e-05 6.093303e-05 -9.327135e-06 -9.490355e-05 -2.016468e-05 -6.750044e-05
          -8.049219e-05 -7.113907e-05 -9.253448e-05 5.396885e-05 2.669993e-05 2.003206e-05
          1.080975e-05 -1.397935e-04 -1.308602e-04 -1.135342e-04 -8.369649e-05 -4.813607e-05
          -5.763791e-05 -5.807197e-05 -6.562001e-05 -5.211599e-05 -1.864600e-05 1.927960e-05
          4.454003e-05 1.156740e-04 1.396817e-04 -1.695993e-04 2.775101e-05 5.551776e-05
          2.062253e-05 3.425145e-05 3.996458e-05 2.270712e-05 1.492013e-06 -7.088553e-05
          6.723213e-05 3.005861e-05 1.796162e-05 3.682367e-05 5.348858e-05 7.626432e-05
          3.334704e-06 -2.790593e-05 -4.109326e-05 -3.092866e-05 -4.618981e-05 -4.179294e-05
          -4.551618e-05 -6.431587e-05 -1.593233e-05 3.947348e-05 -5.996804e-05 -8.757813e-05
          -8.542421e-05 -9.026355e-05 -5.842184e-05 -6.419000e-05 -4.278747e-05 -3.890726e-05
          -3.775926e-05 -3.975165e-05 -5.866995e-05 -6.854012e-05 -8.458576e-05 -9.716074e-05
          -3.693383e-05 1.123313e-05 2.019520e-05 1.184747e-05 -7.735904e-06 -2.810598e-05
          -4.306041e-05 -9.440123e-05 -1.250963e-04 3.928031e-05 -7.342111e-05 -7.844523e-05
          -5.733149e-05 -6.596934e-05 -6.933681e-05 -5.874540e-05 -4.602163e-05 -8.211350e-06
          -2.356676e-06 1.071288e-06 3.140722e-06 1.206526e-06 -1.228154e-06 -5.347081e-06
          -1.438727e-05 -3.214064e-05 -4.147928e-05 -5.223618e-05 -5.266161e-05 -5.391862e-05
          -5.968989e-05 -6.248261e-05 -6.516153e-05 -6.521526e-05 -2.897898e-05 8.700122e-07
          3.063701e-06 2.876022e-06 -1.361183e-05 -6.125916e-05 -6.618496e-05 -6.666593e-05
          -6.412173e-05 -1.127877e-05 -1.074726e-06 1.747662e-08 3.086614e-07 -3.117902e-06
          -3.764619e-05 -6.640645e-05 -6.832512e-05 -6.773543e-05 -6.510665e-05 -5.992990e-05
          -5.512542e-05 -5.015658e-05 -4.187903e-05 -4.189251e-05 -2.999343e-05 -4.298011e-05
          -5.049177e-05 -5.137898e-05 -5.157062e-05 -5.244798e-05 -5.344792e-05 -5.367645e-05
          -1.001999e-04 3.689446e-05 8.492078e-05 1.557276e-05 -5.007945e-05 -1.470181e-04
          1.870301e-05 -3.905807e-05 -2.272073e-05 -7.047479e-05 -1.538770e-05 -3.438746e-05
          -3.581433e-05 2.532338e-05 -1.443689e-04 -3.329669e-04 5.445970e-05 1.745241e-04
          1.673218e-04 1.845403e-04 4.931970e-05 2.339169e-05 -5.951400e-05 -7.444803e-05
          -7.595856e-05 -1.985629e-05 5.948703e-05 9.718642e-05 1.553892e-04 1.984388e-04
          -4.834393e-05 -2.446092e-04 -2.764755e-04 -2.460995e-04 -1.703972e-04 -8.333640e-05
          -1.855315e-05 1.641053e-04 2.767907e-04 -3.118418e-04 1.257436e-04 1.251138e-04
          3.274339e-05 5.995276e-05 7.108993e-05 3.208388e-05 -1.491319e-05 -1.537503e-04
          -1.267463e-04 -2.449154e-04 -2.855281e-04 -2.278874e-04 -1.713958e-04 -8.182255e-05
          -1.639915e-04 3.352782e-05 4.106815e-06 -1.965982e-06 -5.933387e-05 -4.864372e-05
          -8.900677e-05 -1.751697e-04 -3.289911e-05 1.394870e-04 -2.846124e-05 4.072554e-05
          6.344760e-05 4.539595e-05 9.251334e-05 -1.635871e-04 -1.085086e-04 -9.576118e-05
          -7.922661e-05 1.802017e-04 1.583117e-04 1.251746e-04 6.751093e-05 1.558056e-06
          4.136076e-05 6.149083e-05 7.866420e-05 5.203596e-05 -1.246703e-05 -8.299252e-05
          -1.301490e-04 -2.746179e-04 -3.295392e-04 2.671048e-04 -1.138262e-04 -1.678874e-04
          -1.028733e-04 -1.306888e-04 -1.420073e-04 -1.081987e-04 -6.679473e-05 7.245153e-05
          -1.976893e-04 5.532076e-05 1.430863e-04 1.578468e-05 -1.035336e-04 -2.781960e-04
          4.329644e-05 -4.885035e-05 -1.505437e-05 -1.003048e-04 1.852968e-06 -2.709602e-05
          6.588304e-06 1.430039e-04 -1.690329e-04 -5.221052e-04 1.547325e-04 3.373993e-04
          3.204827e-04 3.526631e-04 1.205296e-04 1.399505e-04 -7.210233e-06 -3.449764e-05
          -4.082671e-05 -9.940141e-06 1.251804e-04 1.947382e-04 3.037002e-04 3.895760e-04
          -2.552106e-05 -3.535798e-04 -4.105804e-04 -3.546295e-04 -2.168382e-04 -6.108780e-05
          5.444224e-05 3.906181e-04 5.896474e-04 -5.243332e-04 2.519306e-04 2.528253e-04
          8.723175e-05 1.393198e-04 1.608692e-04 8.922134e-05 2.780205e-06 -2.529178e-04
          -5.762825e-05 -5.746811e-05 -5.728429e-05 -5.767100e-05 -5.740746e-05 -5.501610e-05
          -3.929409e-05 -3.720614e-06 -9.982556e-06 -2.443050e-05 -2.731489e-05 -2.683635e-05
          -2.594932e-05 -2.726204e-05 -2.729056e-05 -2.497821e-05 1.275096e-05 5.189128e-05
          5.553981e-05 5.472160e-05 3.857067e-05 -2.407775e-05 -2.705264e-05 -2.715767e-05
          -2.361552e-05 4.604102e-05 5.668669e-05 5.672848e-05 5.491780e-05 4.830592e-05
          9.156842e-06 -2.468308e-05 -2.697839e-05 -2.720369e-05 -2.743144e-05 -2.692188e-05
          -2.494830e-05 -2.184405e-05 -1.240891e-05 5.003918e-06 -6.963796e-06 -2.484903e-05
          -2.869653e-05 -2.971171e-05 -2.991373e-05 -2.974896e-05 -2.935952e-05 -2.310458e-05
          9.151462e-05 1.051807e-04 1.096551e-04 1.033860e-04 9.592413e-05 8.167223e-05
          6.658969e-05 -6.230219e-06 3.909967e-06 2.186592e-05 3.219444e-05 2.883729e-05
          2.431397e-05 3.036105e-05 1.398566e-05 -7.487657e-06 -2.675925e-05 -7.483204e-05
          -8.128925e-05 -7.812879e-05 -6.777409e-05 2.507550e-05 2.140841e-05 1.959384e-05
          1.426504e-05 -8.677254e-05 -9.488378e-05 -9.062089e-05 -8.238951e-05 -6.821808e-05
          -3.256645e-05 -2.083397e-07 5.217069e-07 3.770409e-06 1.183141e-05 2.047599e-05
          2.453238e-05 3.730645e-05 3.386493e-05 -5.017842e-05 1.553532e-05 4.348943e-05
          3.978920e-05 4.374890e-05 4.516674e-05 4.091128e-05 3.555358e-05 1.162839e-05
          2.638015e-04 2.635614e-04 2.640215e-04 2.666480e-04 2.655975e-04 2.557140e-04
          1.555838e-04 -5.974740e-05 -6.018286e-05 -2.055065e-05 -1.188935e-05 -4.943729e-06
          4.361328e-05 8.164404e-05 9.063505e-05 8.733371e-05 -7.412697e-05 -2.428930e-04
          -2.593051e-04 -2.565743e-04 -1.930990e-04 7.218726e-05 8.835239e-05 8.818387e-05
          7.378760e-05 -2.202048e-04 -2.638391e-04 -2.626040e-04 -2.555333e-04 -2.275368e-04
          -6.098293e-05 8.359532e-05 9.472204e-05 9.479310e-05 9.472195e-05 9.399538e-05
          8.879707e-05 7.282835e-05 2.921292e-05 -5.662834e-05 -5.842858e-05 -1.697979e-05
          -8.164933e-06 -5.640203e-06 -4.244034e-06 -4.129045e-06 -4.759233e-06 -2.195082e-05
          2.220885e-04 2.025211e-04 1.955781e-04 2.076472e-04 2.167137e-04 2.238170e-04
          1.284125e-04 -2.568916e-05 -2.375198e-05 1.896352e-05 1.886767e-05 2.825439e-05
          7.404411e-05 1.004353e-04 1.310641e-04 1.524624e-04 -4.680562e-05 -2.143235e-04
          -2.277837e-04 -2.276225e-04 -1.504072e-04 9.271475e-05 1.191651e-04 1.212830e-04
          1.084630e-04 -1.640795e-04 -2.150114e-04 -2.195091e-04 -2.213923e-04 -2.025290e-04
          -1.799279e-05 1.390920e-04 1.531335e-04 1.490085e-04 1.377171e-04 1.229455e-04