<?xml version="1.0"?>
<VTKFile type="RectilinearGrid" version="0.1" byte_order="LittleEndian">
  <RectilinearGrid WholeExtent="0 47 0 47 0 47">
    <Piece Extent="0 47 0 47 0 47">
      <PointData Scalars="concentration">
        <DataArray type="Float32" Name="concentration" NumberOfComponents="1" format="ascii">
          -1.066570e-04 -6.788788e-05 -5.508222e-05 -7.617274e-05 -9.508809e-05 -1.211512e-04
          -3.480716e-05 3.696224e-05 5.481198e-05 4.057475e-05 5.572409e-05 4.158844e-05
          -1.151802e-05 -2.986971e-05 -8.522083e-05 -1.393300e-04 2.810402e-05 1.229823e-04
          1.270549e-04 1.315673e-04 7.217459e-05 -2.995224e-05 -6.130523e-05 -6.574405e-05
          -6.099547e-05 5.864632e-05 9.613575e-05 1.060238e-04 1.201226e-04 1.223771e-04
          -6.640985e-06 -1.137796e-04 -1.268039e-04 -1.180420e-04 -9.548115e-05 -7.002446e-05
          -5.037564e-05 7.213812e-06 5.608967e-05 -7.095277e-05 9.079214e-05 9.655713e-05
          7.057032e-05 7.778765e-05 7.999717e-05 6.823793e-05 5.459183e-05 1.502886e-05
          -1.489255e-04 -1.099559e-04 -1.042573e-04 -1.242721e-04 -1.373662e-04 -1.497428e-04
          4.421683e-05 2.660870e-04 3.532146e-04 4.006733e-04 4.271587e-04 4.167304e-04
          3.907670e-04 3.925535e-04 3.252661e-04 2.400412e-04 2.483923e-04 1.848692e-04
          1.752492e-04 1.840602e-04 2.041009e-04 3.852131e-04 3.715310e-04 3.671607e-04
          3.566864e-04 1.673010e-04 1.550493e-04 1.639619e-04 1.838300e-04 2.121089e-04
          2.541518e-04 2.891834e-04 2.826575e-04 2.926831e-04 3.097731e-04 3.138994e-04
          3.120233e-04 3.688005e-04 3.867155e-04 1.756065e-04 3.339536e-04 4.252959e-04
          4.352416e-04 4.525348e-04 4.574146e-04 4.458046e-04 4.308056e-04 3.718410e-04
          -1.493292e-04 7.823242e-05 1.468980e-04 3.325505e-05 -6.819707e-05 -2.137282e-04
          2.039606e-04 2.974471e-04 4.444689e-04 4.834043e-04 5.970286e-04 5.645041e-04
          5.681995e-04 6.802260e-04 3.773922e-04 1.473177e-05 3.844140e-04 3.102818e-04
          2.744822e-04 3.107935e-04 2.214692e-04 6.602026e-04 5.496934e-04 5.248517e-04
          4.963198e-04 6.093426e-05 1.078942e-04 1.688398e-04 2.759339e-04 3.925863e-04
          2.758659e-04 1.947774e-04 1.537794e-04 2.064104e-04 3.253706e-04 4.388175e-04
          5.122847e-04 8.109703e-04 9.437436e-04 -1.667091e-04 6.020982e-04 7.645906e-04
          6.708744e-04 7.323077e-04 7.545283e-04 6.890745e-04 6.081577e-04 3.365974e-04
          -1.325832e-05 -1.777910e-04 -2.425722e-04 -1.609988e-04 -7.890607e-05 4.824758e-05
          -8.650468e-06 3.122521e-04 3.750767e-04 4.892409e-04 4.331495e-04 4.407770e-04
          3.562177e-04 2.272803e-04 4.081969e-04 6.088221e-04 1.078710e-04 -6.582029e-05
          -5.825578e-05 -7.570899e-05 1.167872e-04 2.225742e-04 3.223403e-04 3.396572e-04
          3.374688e-04 1.879886e-04 7.690381e-05 2.999270e-05 -3.957259e-05 -8.659098e-05
          2.530538e-04 5.205761e-04 5.576613e-04 5.228111e-04 4.300684e-04 3.111800e-04
          2.182551e-04 7.055060e-06 -1.259249e-04 5.839944e-04 1.418363e-04 2.329676e-04
          3.742409e-04 3.488724e-04 3.356125e-04 3.813792e-04 4.355063e-04 5.823279e-04
          -2.064091e-05 1.372953e-04 1.900255e-04 1.088825e-04 3.144218e-05 -8.703446e-05
          1.142058e-04 6.534210e-05 1.369567e-04 1.426467e-04 2.181221e-04 1.779686e-04
          7.632547e-05 8.687980e-05 -1.223736e-04 -3.517524e-04 3.938051e-05 1.226146e-04
          1.097771e-04 1.326870e-04 6.879105e-06 7.234800e-05 -2.437523e-05 -4.228772e-05
          -4.947443e-05 -9.423010e-05 -2.051588e-05 2.256609e-05 9.197734e-05 1.509670e-04
          -7.324418e-05 -2.491392e-04 -2.834813e-04 -2.471661e-04 -1.572870e-04 -5.803124e-05
          1.008039e-05 2.185651e-04 3.394533e-04 -3.408833e-04 2.828914e-04 3.702054e-04
          2.814978e-04 3.166402e-04 3.286194e-04 2.817827e-04 2.249155e-04 3.796515e-05
          2.151277e-05 1.805764e-04 2.400103e-04 1.572755e-04 7.412364e-05 -5.747403e-05
          4.889495e-05 -1.367654e-04 -1.255647e-04 -1.733320e-04 -1.070527e-04 -1.504705e-04
          -2.748700e-04 -2.805594e-04 -4.807586e-04 -6.847655e-04 -1.545597e-04 6.448453e-05
          6.319513e-05 8.254645e-05 -1.125779e-04 -2.889566e-04 -4.015591e-04 -4.196856e-04
          -4.138993e-04 -1.945823e-04 -7.760448e-05 -3.330638e-05 3.173502e-05 6.904975e-05
          -3.032691e-04 -6.020405e-04 -6.421268e-04 -6.066281e-04 -5.112549e-04 -3.925189e-04
          -3.051063e-04 -9.453946e-05 5.348568e-05 -5.608064e-04 7.012404e-05 8.359172e-05
          -3.720140e-05 -1.055009e-05 -8.085404e-07 -4.809647e-05 -1.042608e-04 -2.759786e-04
          4.439210e-05 -1.737981e-04 -2.439882e-04 -1.375935e-04 -3.974764e-05 1.035288e-04
          -1.987331e-04 -9.800147e-05 -1.768220e-04 -1.730421e-04 -2.746290e-04 -2.631354e-04
          -3.803491e-04 -5.611912e-04 -2.910617e-04 4.169363e-05 -2.916469e-04 -1.938695e-04
          -1.557825e-04 -1.887157e-04 -1.008902e-04 -5.480514e-04 -4.495407e-04 -4.264208e-04
          -3.976547e-04 4.733863e-05 4.130288e-06 -5.582471e-05 -1.599448e-04 -2.759743e-04
          -1.818637e-04 -1.227557e-04 -8.689171e-05 -1.361663e-04 -2.491969e-04 -3.634994e-04
          -4.410514e-04 -7.192563e-04 -8.328494e-04 2.685710e-04 -3.638742e-04 -4.503632e-04
          -3.423949e-04 -3.975211e-04 -4.200329e-04 -3.587824e-04 -2.833319e-04 -3.957750e-05
          -1.687000e-04 1.589560e-04 2.731858e-04 1.084715e-04 -4.706359e-05 -2.780787e-04
          1.058504e-04 -7.867094e-05 -3.206364e-05 -1.271941e-04 8.424553e-06 -3.017321e-05
          9.859116e-06 1.866696e-04 -2.165799e-04 -6.746231e-04 1.621293e-04 3.563880e-04
          3.302983e-04 3.728600e-04 8.802518e-05 1.788800e-04 -9.058199e-06 -4.441547e-05
          -5.630988e-05 -8.949648e-05 7.460651e-05 1.646770e-04 3.079591e-04 4.267001e-04
          -6.992370e-05 -4.587819e-04 -5.298093e-04 -4.572443e-04 -2.778239e-04 -7.482930e-05
          7.408342e-05 5.052679e-04 7.524801e-04 -7.091303e-04 3.144999e-04 3.339114e-04
          1.216937e-04 1.897021e-04 2.175907e-04 1.245661e-04 1.219120e-05 -3.267048e-04
          -1.375924e-04 -1.618315e-04 -1.728886e-04 -1.606967e-04 -1.448943e-04 -1.144078e-04
          -5.746553e-05 9.950762e-05 1.103510e-04 1.108735e-04 9.883488e-05 1.090782e-04
          1.465134e-04 1.565757e-04 1.829997e-04 2.068863e-04 1.383763e-04 1.201728e-04
          1.222448e-04 1.190813e-04 1.480037e-04 1.618258e-04 1.801033e-04 1.830860e-04
          1.831049e-04 1.673261e-04 1.509518e-04 1.432669e-04 1.324271e-04 1.243766e-04
          1.699805e-04 2.041932e-04 2.082546e-04 2.027235e-04 1.855356e-04 1.599183e-04
          1.421638e-04 1.158905e-04 9.969017e-05 1.931489e-04 6.553322e-05 5.813711e-05
          8.232236e-05 8.014220e-05 7.918965e-05 8.701387e-05 9.607892e-05 1.278913e-04
          -1.213621e-04 -8.752276e-05 -8.106411e-05 -9.664478e-05 -1.060032e-04 -1.125490e-04
          3.023382e-05 1.576261e-04 2.014798e-04 2.170870e-04 2.351959e-04 2.440588e-04
          3.243896e-04 3.915250e-04 3.451798e-04 2.746031e-04 2.449419e-04 1.499783e-04
          1.372873e-04 1.439899e-04 1.720506e-04 3.907395e-04 3.881014e-04 3.849404e-04
          3.726685e-04 1.442607e-04 1.246795e-04 1.329254e-04 1.517678e-04 1.829995e-04
          2.562453e-04 3.193629e-04 3.165070e-04 3.242999e-04 3.362339e-04 3.371704e-04
          3.355405e-04 3.810124e-04 3.836853e-04 1.574775e-04 1.969837e-04 2.331088e-04
          2.360397e-04 2.506677e-04 2.563501e-04 2.479234e-04 2.366096e-04 1.978174e-04
          -4.784771e-05 -1.102526e-05 -4.258802e-06 -2.015182e-05 -3.030812e-05 -3.965938e-05
          8.900193e-05 1.643203e-04 2.153284e-04 2.485092e-04 2.715944e-04 2.843851e-04
          3.930269e-04 4.822378e-04 4.342976e-04 3.544295e-04 2.575328e-04 8.705550e-05
          6.681789e-05 7.525615e-05 1.321984e-04 4.779109e-04 4.817816e-04 4.783744e-04
          4.591452e-04 9.161125e-05 5.236590e-05 6.175756e-05 8.501938e-05 1.300637e-04
          2.769833e-04 4.035945e-04 4.045659e-04 4.131741e-04 4.257188e-04 4.250621e-04
          4.201180e-04 4.642201e-04 4.503315e-04 1.689001e-04 2.078904e-04 2.649374e-04
          2.731277e-04 2.905555e-04 2.974675e-04 2.883566e-04 2.757984e-04 2.270516e-04
          7.087840e-05 7.123426e-05 7.051802e-05 7.244052e-05 7.435707e-05 7.678863e-05
          6.083620e-05 1.457287e-07 3.976994e-07 1.354573e-05 1.636718e-05 2.876271e-05
          1.040081e-04 1.550180e-04 1.604734e-04 1.530868e-04 4.816862e-05 -6.110105e-05
          -7.160395e-05 -7.019144e-05 -2.686995e-05 1.532812e-04 1.669925e-04 1.673274e-04
          1.576617e-04 -3.838682e-05 -6.814831e-05 -6.771456e-05 -6.310036e-05 -4.478454e-05
          6.497704e-05 1.592547e-04 1.654957e-04 1.653495e-04 1.627698e-04 1.560644e-04
          1.494039e-04 1.429922e-04 1.161506e-04 4.585227e-05 -5.899938e-06 4.630638e-06
          1.276924e-05 1.587844e-05 1.778205e-05 1.851616e-05 1.889284e-05 1.507759e-05
          1.487325e-04 1.308872e-04 1.285709e-04 1.386565e-04 1.440169e-04 1.463245e-04
          2.488437e-05 -1.451846e-04 -1.867785e-04 -1.981201e-04 -2.079496e-04 -2.010944e-04
          -1.748273e-04 -1.642426e-04 -1.307696e-04 -9.228471e-05 -1.409057e-04 -1.592768e-04
          -1.595763e-04 -1.628389e-04 -1.548905e-04 -1.637332e-04 -1.530630e-04 -1.510349e-04
          -1.502528e-04 -1.455362e-04 -1.522103e-04 -1.559510e-04 -1.627755e-04 -1.677468e-04
          -1.406754e-04 -1.162094e-04 -1.100082e-04 -1.147097e-04 -1.222105e-04 -1.239112e-04
          -1.240519e-04 -1.547418e-04 -1.752353e-04 -1.034080e-04 -1.761271e-04 -2.073820e-04
          -2.102304e-04 -2.175813e-04 -2.193616e-04 -2.142136e-04 -2.073479e-04 -1.854077e-04
          1.241043e-04 1.743554e-04 1.951077e-04 1.715979e-04 1.455208e-04 1.014320e-04
          6.280059e-05 -1.496279e-04 -1.784118e-04 -2.041699e-04 -1.848063e-04 -1.826477e-04
          -1.277485e-04 -6.678516e-05 -1.161778e-04 -1.760222e-04 -8.243274e-05 -9.279299e-05
          -1.015057e-04 -9.540457e-05 -1.327749e-04 -6.848809e-05 -9.266915e-05 -9.787951e-05
          -1.024610e-04 -1.638390e-04 -1.455387e-04 -1.305302e-04 -1.063089e-04 -8.139321e-05
          -1.242725e-04 -1.524155e-04 -1.592416e-04 -1.487830e-04 -1.200649e-04 -8.242183e-05
          -5.430527e-05 3.063206e-06 2.629067e-05 -2.254612e-04 -1.000802e-04 -1.217710e-04
          -1.650540e-04 -1.571067e-04 -1.524026e-04 -1.664219e-04 -1.828148e-04 -2.324707e-04
          8.621208e-05 1.452836e-05 -9.879210e-06 2.884500e-05 6.530497e-05 1.199060e-04
          4.571098e-06 -4.188212e-05 -7.664519e-05 -6.802532e-05 -9.993067e-05 -7.165127e-05
          3.579740e-05 7.279043e-05 1.734339e-04 2.729234e-04 6.257512e-06 -1.241757e-04
          -1.272699e-04 -1.364959e-04 -4.329081e-05 7.745709e-05 1.328557e-04 1.412727e-04
          1.365014e-04 -7.534100e-06 -6.590338e-05 -8.511029e-05 -1.126961e-04 -1.241738e-04
          7.025172e-05 2.298685e-04 2.510427e-04 2.343839e-04 1.916345e-04 1.418126e-04
          1.059709e-04 4.775244e-06 -7.341766e-05 1.782279e-04 -1.460479e-04 -1.773053e-04
          -1.311221e-04 -1.449008e-04 -1.487294e-04 -1.269666e-04 -1.006920e-04 -1.914506e-05
          2.149441e-05 1.197024e-04 1.522871e-04 1.068485e-04 6.497066e-05 4.076811e-06
          1.061785e-04 -2.639427e-05 -1.957494e-05 -3.868705e-05 3.772431e-06 1.784891e-05
          1.825959e-04 3.364926e-04 2.277038e-04 7.932233e-05 1.620787e-04 4.681588e-05
          2.242822e-05 3.692793e-05 2.079853e-05 3.343546e-04 3.025335e-04 2.927872e-04
          2.740171e-04 -4.644306e-05 -4.460008e-05 -1.715755e-05 3.277519e-05 9.678412e-05
          1.228717e-04 1.561290e-04 1.447772e-04 1.660864e-04 2.137928e-04 2.611882e-04
          2.943534e-04 4.133930e-04 4.440843e-04 -1.108022e-04 7.428014e-05 7.951975e-05
          2.817122e-05 5.334495e-05 6.548586e-05 3.935193e-05 7.174529e-06 -9.330477e-05
          8.084733e-05 2.221421e-05 1.088565e-06 3.346324e-05 6.463772e-05 1.118283e-04
          2.675034e-05 -6.956447e-06 -2.739743e-05 -1.021616e-05 -3.450234e-05 -7.671599e-06
          1.026263e-04 1.480945e-04 2.306552e-04 3.068499e-04 4.420287e-05 -1.075403e-04
          -1.141257e-04 -1.209156e-04 -2.473572e-05 1.507708e-04 2.016394e-04 2.086486e-04
          2.006336e-04 -6.779196e-07 -6.155710e-05 -7.736288e-05 -9.828534e-05 -1.002431e-04
          1.056877e-04 2.759062e-04 2.954951e-04 2.819236e-04 2.454912e-04 2.004179e-04
          1.667958e-04 8.217846e-05 7.964089e-06 1.876223e-04 -9.244306e-05 -1.059576e-04
          -6.183106e-05 -7.123287e-05 -7.360561e-05 -5.549717e-05 -3.401793e-05 2.995042e-05
          1.209437e-04 7.195016e-05 5.754926e-05 8.452973e-05 1.082705e-04 1.412240e-04
          1.040618e-05 -1.144128e-04 -1.628997e-04 -1.709011e-04 -1.951492e-04 -1.713856e-04
          -7.312710e-05 -3.137423e-05 4.477136e-05 1.209111e-04 -5.934948e-05 -1.486075e-04
          -1.511910e-04 -1.584155e-04 -1.008532e-04 -2.679757e-05 1.154298e-05 1.741717e-05
          1.458154e-05 -7.438177e-05 -1.119004e-04 -1.244917e-04 -1.432662e-04 -1.508139e-04
          -2.204060e-05 8.531859e-05 1.007469e-04 8.876617e-05 6.028314e-05 3.102129e-05
          1.092016e-05 -6.183497e-05 -1.184429e-04 4.941836e-05 -1.932653e-04 -2.380918e-04
          -2.152285e-04 -2.268065e-04 -2.297005e-04 -2.143004e-04 -1.957919e-04 -1.357037e-04
          8.022420e-05 3.385057e-04 4.326172e-04 3.056685e-04 1.813047e-04 -1.040928e-05
          1.599712e-04 -2.456345e-04 -2.583018e-04 -3.463544e-04 -2.411211e-04 -2.553954e-04
          -1.276619e-04 7.729853e-05 -2.212592e-04 -5.703981e-04 8.615629e-06 7.336258e-05
          4.329872e-05 7.643818e-05 -1.257020e-04 7.084151e-05 -6.617007e-05 -9.360655e-05
          -1.097791e-04 -2.732970e-04 -1.626048e-04 -8.993695e-05 2.703146e-05 1.354177e-04
          -1.762316e-04 -4.104814e-04 -4.591665e-04 -4.030008e-04 -2.614075e-04 -9.535586e-05
          2.651647e-05 3.526372e-04 5.190093e-04 -6.928307e-04 4.629256e-05 2.833051e-05
          -1.505931e-04 -9.930730e-05 -7.627482e-05 -1.485227e-04 -2.358495e-04 -4.994080e-04
          1.414367e-04 1.062158e-05 -2.904177e-05 3.810488e-05 9.835089e-05 1.846366e-04
          -7.475326e-05 -1.889020e-04 -2.805423e-04 -2.989619e-04 -3.634928e-04 -3.320306e-04
          -2.587355e-04 -2.729821e-04 -9.192820e-05 1.127100e-04 -1.834668e-04 -2.277165e-04
          -2.155098e-04 -2.357109e-04 -1.511951e-04 -2.615007e-04 -1.861350e-04 -1.714526e-04
          -1.626173e-04 -6.587230e-05 -1.162673e-04 -1.510581e-04 -2.091443e-04 -2.615711e-04
          -1.077666e-04 1.365815e-05 4.239076e-05 1.163841e-05 -5.928585e-05 -1.298346e-04
          -1.768523e-04 -3.544957e-04 -4.530321e-04 1.273305e-04 -3.729451e-04 -4.681546e-04
          -4.096630e-04 -4.429797e-04 -4.542683e-04 -4.155697e-04 -3.683093e-04 -2.121433e-04
          7.184911e-05 4.480102e-05 4.561624e-05 6.036722e-05 6.911533e-05 7.822768e-05
          -1.094786e-04 -3.520093e-04 -4.771925e-04 -5.739838e-04 -6.045427e-04 -5.813650e-04
          -4.763857e-04 -4.249964e-04 -3.623654e-04 -2.851496e-04 -2.228553e-04 -1.128639e-04
          -1.011256e-04 -1.107514e-04 -1.632034e-04 -4.085573e-04 -4.008226e-04 -3.971047e-04
          -3.832512e-04 -1.165992e-04 -8.584952e-05 -9.134750e-05 -1.074093e-04 -1.375247e-04
          -2.413411e-04 -3.265191e-04 -3.243176e-04 -3.329918e-04 -3.453128e-04 -3.413397e-04
          -3.291307e-04 -3.685621e-04 -3.709655e-04 -2.143608e-04 -4.264596e-04 -5.833050e-04
          -6.143915e-04 -6.318499e-04 -6.352660e-04 -6.255540e-04 -6.125321e-04 -5.461700e-04
          2.225525e-05 5.892506e-05 8.478746e-05 6.736193e-05 4.449354e-05 6.443349e-06
          -1.374880e-04 -4.583301e-04 -6.069790e-04 -7.555454e-04 -7.659465e-04 -7.472948e-04
          -6.199048e-04 -5.265931e-04 -5.361502e-04 -5.363506e-04 -2.476334e-04 -3.659158e-05
          -2.460913e-05 -2.792841e-05 -1.674431e-04 -5.064194e-04 -5.406011e-04 -5.435846e-04
          -5.260721e-04 -1.431730e-04 -6.071247e-05 -4.819364e-05 -3.869429e-05 -5.616621e-05
          -3.248539e-04 -5.425272e-04 -5.569327e-04 -5.521121e-04 -5.284798e-04 -4.784368e-04
          -4.292676e-04 -3.835110e-04 -3.255479e-04 -4.270304e-04 -4.667257e-04 -6.664436e-04
          -7.537893e-04 -7.617950e-04 -7.603933e-04 -7.684174e-04 -7.762951e-04 -7.635804e-04
          6.021535e-05 -2.279162e-04 -3.172432e-04 -1.722685e-04 -3.860884e-05 1.609256e-04
          -2.915282e-04 -2.969615e-04 -4.752799e-04 -5.326406e-04 -6.786536e-04 -6.223511e-04
          -5.405304e-04 -6.288273e-04 -2.447923e-04 2.025046e-04 -3.124798e-04 -2.648551e-04
          -2.237604e-04 -2.694246e-04 -1.325913e-04 -5.980526e-04 -4.475439e-04 -4.154201e-04
          -3.840087e-04 7.407625e-05 -9.029374e-07 -7.860558e-05 -2.126256e-04 -3.525084e-04
          -1.539385e-04 -9.428398e-06 4.372828e-05 -2.331086e-05 -1.792592e-04 -3.362727e-04
          -4.381983e-04 -8.133762e-04 -9.904128e-04 3.692911e-04 -6.936179e-04 -9.113355e-04
          -7.828318e-04 -8.567040e-04 -8.828630e-04 -7.984251e-04 -6.947895e-04 -3.427263e-04
          -9.655784e-05 1.349261e-04 2.173452e-04 1.031333e-04 -5.006511e-06 -1.645507e-04
          7.452344e-05 -1.357295e-04 -1.360163e-04 -2.278710e-04 -1.365792e-04 -1.450859e-04
          -7.874287e-06 1.870306e-04 -8.514200e-05 -4.055625e-04 1.399540e-04 2.277949e-04
          2.038730e-04 2.332270e-04 4.617661e-05 1.867553e-04 6.421261e-05 3.994490e-05
          2.739107e-05 -7.674762e-05 2.787231e-05 9.245186e-05 1.957809e-04 2.877919e-04
          -1.713985e-05 -2.510377e-04 -2.978365e-04 -2.473886e-04 -1.235276e-04 1.732935e-05
          1.224040e-04 4.224285e-04 5.816241e-04 -5.003250e-04 1.220571e-04 9.296981e-05
          -6.271196e-05 -1.486475e-05 6.482770e-06 -5.762175e-05 -1.353853e-04 -3.628831e-04
          -1.405303e-04 -1.529416e-04 -1.614601e-04 -1.543216e-04 -1.424714e-04 -1.165566e-04
          -2.672875e-05 1.415666e-04 1.669262e-04 1.779333e-04 1.734142e-04 1.863567e-04
          2.510972e-04 2.851953e-04 2.962720e-04 2.958461e-04 2.025455e-04 1.357039e-04
          1.316928e-04 1.312374e-04 1.755523e-04 2.886778e-04 3.069862e-04 3.088774e-04
          3.031535e-04 1.813821e-04 1.544980e-04 1.502644e-04 1.466380e-04 1.518229e-04
          2.379110e-04 3.072773e-04 3.113404e-04 3.087522e-04 2.961014e-04 2.719094e-04
          2.536281e-04 2.413548e-04 2.217924e-04 2.296562e-04 1.224275e-04 1.330414e-04
          1.583863e-04 1.613877e-04 1.624992e-04 1.672632e-04 1.720255e-04 1.879062e-04
          -2.390815e-04 -2.795666e-04 -3.002623e-04 -2.798946e-04 -2.530704e-04 -2.008372e-04
          -7.576037e-05 2.386038e-04 2.820576e-04 3.051134e-04 2.890526e-04 3.004827e-04
          3.315976e-04 3.290062e-04 3.665811e-04 3.990298e-04 2.642767e-04 2.149304e-04
          2.170981e-04 2.130439e-04 2.744592e-04 3.341550e-04 3.650432e-04 3.699393e-04
          3.677635e-04 3.000092e-04 2.654395e-04 2.525321e-04 2.349108e-04 2.242005e-04
          3.231755e-04 3.984917e-04 4.055261e-04 3.970297e-04 3.680465e-04 3.219745e-04
          2.877634e-04 2.447999e-04 2.156374e-04 3.704400e-04 1.916399e-04 2.124308e-04
          2.623526e-04 2.608331e-04 2.593898e-04 2.718872e-04 2.859805e-04 3.310927e-04
          -2.542516e-04 -9.490364e-05 -4.537984e-05 -1.254394e-04 -1.956569e-04 -2.914231e-04
          2.996314e-05 1.671192e-04 2.416140e-04 2.207016e-04 2.904125e-04 2.723254e-04
          2.953519e-04 3.818354e-04 1.729375e-04 -7.176764e-05 2.926667e-04 3.493275e-04
          3.343119e-04 3.568268e-04 2.480150e-04 3.778569e-04 2.925520e-04 2.756277e-04
          2.652353e-04 1.583219e-04 2.213636e-04 2.638317e-04 3.342862e-04 3.979748e-04
          2.052301e-04 5.367433e-05 1.865045e-05 5.468657e-05 1.372266e-04 2.192478e-04
          2.774753e-04 4.942096e-04 6.121389e-04 -1.208032e-04 3.665992e-04 4.176162e-04
          3.377291e-04 3.771158e-04 3.921624e-04 3.471772e-04 2.919720e-04 1.226261e-04
          -1.728882e-04 -2.783129e-04 -3.179701e-04 -2.665306e-04 -2.135589e-04 -1.264905e-04
          -1.339058e-04 1.500186e-04 1.584413e-04 1.775967e-04 1.306673e-04 1.386653e-04
          9.490701e-05 1.326659e-05 1.319947e-04 2.720274e-04 8.038984e-05 1.019435e-04
          1.190943e-04 1.045876e-04 1.712506e-04 2.114404e-05 7.439061e-05 8.592222e-05
          9.631542e-05 2.428896e-04 2.086879e-04 1.783425e-04 1.283466e-04 7.625908e-05
          1.579060e-04 2.133361e-04 2.294761e-04 2.062574e-04 1.466363e-04 7.469727e-05
          2.386258e-05 -1.025901e-04 -1.570914e-04 3.559804e-04 2.682015e-05 1.570179e-05
          8.907026e-05 6.831567e-05 5.896709e-05 8.900213e-05 1.252399e-04 2.419914e-04
          -2.192172e-04 -6.532273e-05 -1.245277e-05 -9.065981e-05 -1.624745e-04 -2.642346e-04
          -2.670043e-05 3.651857e-06 2.753796e-05 -3.589812e-05 2.357646e-05 3.941387e-06
          9.886982e-06 8.110012e-05 -1.124948e-04 -3.277035e-04 1.339365e-04 2.975360e-04
          2.923874e-04 3.111757e-04 1.513323e-04 8.247964e-05 -1.197614e-05 -2.839418e-05
          -2.798280e-05 8.087413e-05 1.760326e-04 2.177593e-04 2.819023e-04 3.256455e-04
          2.174820e-05 -2.224588e-04 -2.607939e-04 -2.268310e-04 -1.433537e-04 -4.953437e-05
          2.153635e-05 2.317235e-04 3.669826e-04 -2.846281e-04 1.864375e-04 1.757918e-04
          7.373082e-05 1.049315e-04 1.176369e-04 7.412236e-05 2.171438e-05 -1.283417e-04
          -1.379175e-04 -1.935766e-04 -2.142612e-04 -1.872823e-04 -1.587749e-04 -1.102920e-04
          -1.011365e-04 7.556900e-05 7.393998e-05 7.177953e-05 4.449128e-05 5.068789e-05
          3.736040e-05 -8.684672e-07 6.244893e-05 1.377752e-04 6.025723e-05 9.608894e-05
          1.073999e-04 9.905019e-05 1.241372e-04 6.132218e-06 3.288049e-05 3.909057e-05
          4.671287e-05 1.678395e-04 1.563946e-04 1.402388e-04 1.128172e-04 8.133066e-05
          9.970587e-05 1.077341e-04 1.147421e-04 1.022496e-04 7.028648e-05 3.204718e-05
          6.306203e-06 -5.823207e-05 -8.119897e-05 1.979775e-04 6.620248e-06 -1.515638e-05
          2.074997e-05 9.204225e-06 4.219414e-06 2.039307e-05 3.996019e-05 1.070933e-04
          -2.446438e-05 4.427178e-05 6.685989e-05 3.138655e-05 -2.442194e-06 -5.370310e-05
          4.345794e-05 4.298513e-05 7.863402e-05 8.267672e-05 1.157299e-04 9.601197e-05
          3.846187e-05 3.424720e-05 -5.885517e-05 -1.593812e-04 2.114177e-05 6.828988e-05
          6.382581e-05 7.383232e-05 1.571676e-05 2.767597e-05 -1.605794e-05 -2.386355e-05
          -2.615536e-05 -2.761046e-05 6.905671e-06 2.556719e-05 5.536225e-05 7.921951e-05
          -2.870399e-05 -1.143246e-04 -1.300747e-04 -1.141999e-04 -7.482521e-05 -3.163921e-05
          -2.031825e-06 8.992475e-05 1.458368e-04 -1.422946e-04 1.398892e-04 1.816610e-04
          1.437502e-04 1.590736e-04 1.641263e-04 1.435177e-04 1.186123e-04 3.655057e-05
          1.549752e-04 2.142232e-04 2.366757e-04 2.047563e-04 1.689457e-04 1.054758e-04
          9.428163e-05 -5.091400e-05 -2.478229e-05 -4.362797e-06 2.833603e-05 -7.589546e-06
          -1.640933e-04 -2.330028e-04 -3.151173e-04 -3.894630e-04 -1.928260e-04 -1.130461e-04
          -1.135978e-04 -1.047992e-04 -1.766513e-04 -2.466473e-04 -2.960774e-04 -3.036572e-04
          -3.015880e-04 -2.215197e-04 -1.779068e-04 -1.609843e-04 -1.362814e-04 -1.220816e-04
          -2.596164e-04 -3.692451e-04 -3.834521e-04 -3.693033e-04 -3.285507e-04 -2.756837e-04
          -2.404303e-04 -1.655019e-04 -1.100742e-04 -3.111907e-04 4.821343e-05 1.085481e-04
          6.612613e-05 7.545065e-05 7.735054e-05 5.759031e-05 3.446856e-05 -4.993180e-05
          1.900917e-04 1.513268e-04 1.355900e-04 1.539096e-04 1.684434e-04 1.825563e-04
          1.132630e-04 9.572347e-05 1.442636e-04 2.272445e-04 2.256200e-04 2.063330e-04
          7.082219e-05 -2.812912e-05 5.597693e-06 5.042247e-05 -1.087154e-04 -1.924828e-04
          -1.944915e-04 -1.959327e-04 -1.317204e-04 -4.323732e-05 -2.394236e-05 -2.084388e-05
          -2.510303e-05 -1.374726e-04 -1.751823e-04 -1.857932e-04 -2.000971e-04 -2.041387e-04
          -8.057214e-05 2.008993e-05 3.183590e-05 2.488309e-05 8.220129e-06 -1.281665e-05
          -3.508053e-05 -9.087152e-05 -1.311892e-04 4.644671e-05 8.255368e-05 1.827331e-04
          2.246082e-04 2.195554e-04 2.149775e-04 2.233837e-04 2.333943e-04 2.402598e-04
          1.193612e-04 1.236720e-04 1.166088e-04 1.152784e-04 1.162723e-04 1.160765e-04
          1.927937e-04 2.728174e-04 3.783327e-04 4.938685e-04 5.180912e-04 5.062982e-04
          4.534591e-04 4.293814e-04 4.047359e-04 3.613879e-04 1.449783e-04 -8.050012e-05
          -1.007010e-04 -9.299131e-05 1.399305e-05 4.094588e-04 4.254956e-04 4.243497e-04
          4.028081e-04 -3.430595e-05 -1.015186e-04 -1.011509e-04 -9.058011e-05 -5.169473e-05
          1.848861e-04 3.833309e-04 3.931281e-04 3.964796e-04 3.964031e-04 3.798000e-04
          3.563381e-04 3.548073e-04 3.119515e-04 1.985665e-04 3.144774e-04 4.761367e-04
          5.218655e-04 5.351277e-04 5.375844e-04 5.347336e-04 5.296856e-04 4.806836e-04
          5.826871e-05 1.981929e-04 2.380154e-04 1.687703e-04 1.056866e-04 1.022809e-05
          2.466887e-04 2.480310e-04 3.757271e-04 4.562023e-04 5.373793e-04 5.103151e-04
          4.787704e-04 5.313001e-04 3.397855e-04 1.052983e-04 2.202310e-04 5.997884e-05
          2.761445e-05 5.325491e-05 4.909453e-05 5.074503e-04 4.473958e-04 4.316371e-04
          4.038026e-04 -7.495314e-05 -7.854169e-05 -4.085851e-05 2.957702e-05 1.199824e-04
          1.667603e-04 2.175453e-04 1.987426e-04 2.322555e-04 3.060517e-04 3.723540e-04
          4.092240e-04 5.853522e-04 6.412996e-04 -8.495477e-05 4.528387e-04 6.277528e-04
          5.877141e-04 6.296799e-04 6.439602e-04 6.026077e-04 5.509678e-04 3.603814e-04
          8.498922e-05 -3.076309e-05 -7.411817e-05 -1.742970e-05 3.634289e-05 1.144051e-04
          1.282067e-05 1.459099e-04 1.787301e-04 2.597004e-04 2.209144e-04 2.164616e-04
          1.010449e-04 -2.427634e-05 1.038892e-04 2.551849e-04 -5.761087e-05 -1.411066e-04
          -1.324301e-04 -1.451248e-04 -3.010362e-05 -3.074858e-05 3.159314e-05 4.332515e-05
          4.575125e-05 1.891611e-05 -4.607328e-05 -7.855628e-05 -1.286778e-04 -1.683254e-04
          2.769517e-05 1.806375e-04 2.057119e-04 1.814028e-04 1.201223e-04 4.693622e-05
          -1.086410e-05 -1.616994e-04 -2.480399e-04 2.854408e-04 3.183798e-05 9.697403e-05
          1.869423e-04 1.658010e-04 1.551107e-04 1.861761e-04 2.236272e-04 3.228377e-04
          -2.319128e-05 2.328535e-04 3.206071e-04 1.900866e-04 6.423266e-05 -1.287579e-04
          1.579543e-04 7.778752e-06 8.828801e-05 6.676831e-05 1.834054e-04 1.273666e-04
          1.381384e-05 6.270842e-05 -2.666636e-04 -6.288509e-04 2.682283e-05 1.815898e-04
          1.620599e-04 1.976947e-04 -2.078267e-05 4.405056e-05 -1.119799e-04 -1.406706e-04
          -1.499394e-04 -1.764773e-04 -4.863936e-05 2.173814e-05 1.337824e-04 2.257485e-04
          -1.624602e-04 -4.673187e-04 -5.230962e-04 -4.647792e-04 -3.194558e-04 -1.548333e-04
          -3.884462e-05 2.973642e-04 4.944651e-04 -6.101954e-04 3.457158e-04 4.402201e-04
          2.839530e-04 3.380029e-04 3.580047e-04 2.825978e-04 1.918150e-04 -9.863520e-05
          1.221292e-04 1.291829e-04 1.314791e-04 1.237657e-04 1.119101e-04 8.487093e-05
          6.249629e-05 5.500236e-05 1.066297e-04 1.618132e-04 1.764490e-04 1.308355e-04
          -1.239542e-04 -2.807804e-04 -3.113107e-04 -3.176964e-04 -2.086082e-04 -1.100326e-04
          -1.010304e-04 -9.834049e-05 -1.380654e-04 -2.966594e-04 -3.251120e-04 -3.276249e-04
          -3.196868e-04 -1.552058e-04 -1.266892e-04 -1.249376e-04 -1.252194e-04 -1.382565e-04
          -2.422633e-04 -3.308448e-04 -3.374524e-04 -3.340178e-04 -3.199831e-04 -2.991350e-04
          -2.886182e-04 -2.763495e-04 -2.444042e-04 -1.687037e-04 1.087505e-04 2.020395e-04
          1.998970e-04 1.991579e-04 1.953673e-04 1.891038e-04 1.824552e-04 1.432050e-04
          1.274239e-04 1.529977e-04 1.567882e-04 1.404774e-04 1.226523e-04 8.816378e-05
          1.456500e-04 2.068168e-04 3.143745e-04 4.174441e-04 4.496229e-04 3.994220e-04
          1.373954e-04 -1.259739e-05 -7.570387e-05 -1.286429e-04 -8.539601e-05 -8.848353e-05
          -9.059746e-05 -8.218064e-05 -8.192410e-05 -3.684257e-05 -6.539761e-05 -7.000654e-05
          -7.352613e-05 -1.290638e-04 -1.265189e-04 -1.202964e-04 -1.083762e-04 -9.618446e-05
          -1.069483e-04 -1.163174e-04 -1.220895e-04 -1.135477e-04 -9.189267e-05 -7.206285e-05
          -6.744717e-05 -3.291021e-05 -9.152777e-06 -6.709468e-05 2.979458e-04 4.664883e-04
          4.780807e-04 4.878912e-04 4.870361e-04 4.751387e-04 4.606839e-04 3.834804e-04
          -1.584968e-05 -5.082411e-06 -1.505554e-05 -2.005905e-05 -1.841386e-05 -1.133877e-05
          1.850396e-04 4.550598e-04 6.121431e-04 7.546519e-04 7.862023e-04 7.694486e-04
          6.930102e-04 6.557283e-04 6.096072e-04 5.384610e-04 3.094662e-04 6.293270e-05
          4.100347e-05 5.134354e-05 1.755207e-04 6.336301e-04 6.487303e-04 6.469373e-04
          6.218403e-04 1.191506e-04 4.260493e-05 4.352535e-05 5.738102e-05 1.026440e-04
          3.638293e-04 5.805332e-04 5.880988e-04 5.936385e-04 5.942102e-04 5.688934e-04
          5.367978e-04 5.500184e-04 5.124401e-04 3.613084e-04 5.166832e-04 7.257723e-04
          7.879547e-04 8.078583e-04 8.116098e-04 8.067050e-04 7.985283e-04 7.349308e-04
          -9.698313e-05 -1.097812e-04 -1.248470e-04 -1.170108e-04 -1.020587e-04 -7.100575e-05
          8.757001e-05 3.493500e-04 4.492679e-04 5.374139e-04 5.472625e-04 5.534166e-04
          5.854284e-04 6.028513e-04 6.000266e-04 5.730514e-04 3.302017e-04 1.151048e-04
          9.846282e-05 1.026408e-04 2.211649e-04 5.940737e-04 6.251178e-04 6.266928e-04
          6.068918e-04 1.983639e-04 1.251546e-04 1.199874e-04 1.216721e-04 1.510538e-04
          3.971182e-04 5.998813e-04 6.105495e-04 6.093978e-04 5.941744e-04 5.547207e-04
          5.178717e-04 5.019014e-04 4.531454e-04 4.005854e-04 3.538500e-04 4.721951e-04
          5.322028e-04 5.439341e-04 5.464733e-04 5.504661e-04 5.530664e-04 5.408460e-04