<?xml version="1.0"?>
<VTKFile type="RectilinearGrid" version="0.1" byte_order="LittleEndian">
  <RectilinearGrid WholeExtent="0 47 0 47 0 47">
    <Piece Extent="0 47 0 47 0 47">
      <PointData Scalars="concentration">
        <DataArray type="Float32" Name="concentration" NumberOfComponents="1" format="ascii">
          9.966511e-05 1.415649e-04 1.552529e-04 1.357150e-04 1.158039e-04 8.288937e-05
          9.417422e-05 -1.622782e-05 -3.464204e-06 9.447520e-06 3.185805e-05 2.996256e-05
          5.656295e-05 9.646179e-05 4.810412e-05 -1.440556e-05 3.043899e-06 -6.433888e-05
          -7.634963e-05 -6.921992e-05 -6.895737e-05 9.001011e-05 7.512376e-05 7.044846e-05
          6.099026e-05 -1.066124e-04 -1.101833e-04 -9.861717e-05 -7.640167e-05 -4.603959e-05
          -1.699292e-05 1.319299e-05 9.761726e-06 1.921074e-05 4.165979e-05 6.531618e-05
          7.981582e-05 1.269951e-04 1.356177e-04 -9.611346e-05 3.626237e-05 6.715744e-05
          4.764662e-05 5.834165e-05 6.291323e-05 5.090227e-05 3.616911e-05 -1.693409e-05
          4.661542e-05 8.759575e-05 9.368877e-05 7.519499e-05 6.075462e-05 4.085830e-05
          1.646735e-04 2.252306e-04 3.127017e-04 3.901744e-04 4.239107e-04 4.202927e-04
          4.414970e-04 4.798794e-04 4.177566e-04 3.263842e-04 2.068884e-04 6.532024e-06
          -1.639528e-05 -5.205991e-06 6.585896e-05 4.653715e-04 4.646057e-04 4.599653e-04
          4.375786e-04 6.689729e-06 -4.037972e-05 -3.028891e-05 -3.793909e-06 4.776760e-05
          2.238252e-04 3.752428e-04 3.769503e-04 3.876199e-04 4.050818e-04 4.085155e-04
          4.022705e-04 4.489238e-04 4.327474e-04 1.418384e-04 2.951419e-04 4.178142e-04
          4.344425e-04 4.545032e-04 4.610607e-04 4.490183e-04 4.329786e-04 3.597551e-04
          -4.020630e-05 1.877469e-04 2.561432e-04 1.437408e-04 4.156190e-05 -1.081347e-04
          2.708612e-04 2.797144e-04 4.291815e-04 4.870313e-04 6.047036e-04 5.742338e-04
          5.936697e-04 7.190015e-04 4.190556e-04 5.405705e-05 3.556100e-04 2.102084e-04
          1.677869e-04 2.053357e-04 1.433341e-04 6.944927e-04 5.905797e-04 5.656237e-04
          5.309462e-04 -2.947022e-05 -8.855960e-07 6.036840e-05 1.706365e-04 2.989476e-04
          2.528295e-04 2.329472e-04 1.963599e-04 2.492749e-04 3.683294e-04 4.813404e-04
          5.522106e-04 8.444878e-04 9.592516e-04 -1.867574e-04 5.862774e-04 7.695275e-04
          6.802590e-04 7.430004e-04 7.659975e-04 7.002910e-04 6.189414e-04 3.393258e-04
          7.918217e-06 -1.581991e-04 -2.240540e-04 -1.413506e-04 -5.916833e-05 6.756411e-05
          4.012849e-06 3.188686e-04 3.863801e-04 5.084177e-04 4.530029e-04 4.580014e-04
          3.578896e-04 2.188534e-04 4.007435e-04 6.032536e-04 9.310251e-05 -8.634702e-05
          -7.870585e-05 -9.608963e-05 1.003735e-04 2.123957e-04 3.126333e-04 3.300537e-04
          3.274944e-04 1.696575e-04 5.642193e-05 8.897667e-06 -6.114571e-05 -1.082503e-04
          2.390082e-04 5.128691e-04 5.505755e-04 5.155911e-04 4.224475e-04 3.030456e-04
          2.090681e-04 -5.225883e-06 -1.403437e-04 5.798646e-04 1.497723e-04 2.510764e-04
          3.948614e-04 3.693115e-04 3.559000e-04 4.017061e-04 4.561259e-04 6.015236e-04
          -4.147383e-05 1.138803e-04 1.652146e-04 8.536637e-05 8.681841e-06 -1.078044e-04
          1.006559e-04 7.858303e-05 1.534356e-04 1.597265e-04 2.338397e-04 1.906234e-04
          6.890930e-05 6.478434e-05 -1.432414e-04 -3.685385e-04 3.643125e-05 1.399260e-04
          1.298251e-04 1.521923e-04 2.101215e-05 5.033438e-05 -4.776125e-05 -6.537673e-05
          -7.062223e-05 -7.684560e-05 1.099831e-06 4.319923e-05 1.105426e-04 1.647298e-04
          -7.686610e-05 -2.681701e-04 -3.033530e-04 -2.674701e-04 -1.786015e-04 -8.040152e-05
          -1.283467e-05 1.936966e-04 3.184163e-04 -3.343423e-04 2.952864e-04 3.841759e-04
          2.968142e-04 3.311051e-04 3.426674e-04 2.961982e-04 2.401356e-04 5.608517e-05
          -9.461985e-06 1.466146e-04 2.045523e-04 1.234849e-04 4.177903e-05 -8.624177e-05
          2.940603e-05 -1.268826e-04 -1.156443e-04 -1.667220e-04 -1.027761e-04 -1.468307e-04
          -2.778490e-04 -2.900971e-04 -4.874391e-04 -6.868346e-04 -1.458972e-04 9.092369e-05
          9.210131e-05 1.107320e-04 -8.872484e-05 -2.973656e-04 -4.100198e-04 -4.277251e-04
          -4.201925e-04 -1.661507e-04 -4.571578e-05 -2.447264e-06 6.043030e-05 9.320548e-05
          -2.937970e-04 -6.056512e-04 -6.463789e-04 -6.115315e-04 -5.179127e-04 -4.012685e-04
          -3.148271e-04 -1.066556e-04 4.413517e-05 -5.453003e-04 7.611018e-05 8.497404e-05
          -3.466260e-05 -8.895967e-06 6.078117e-07 -4.596656e-05 -1.009649e-04 -2.672365e-04
          7.198049e-05 -1.485797e-04 -2.201565e-04 -1.118275e-04 -1.274524e-05 1.319197e-04
          -1.804843e-04 -9.648514e-05 -1.737942e-04 -1.631674e-04 -2.646104e-04 -2.517715e-04
          -3.617802e-04 -5.383491e-04 -2.642222e-04 7.066927e-05 -2.924635e-04 -2.203175e-04
          -1.840786e-04 -2.169065e-04 -1.169418e-04 -5.264156e-04 -4.238588e-04 -4.004606e-04
          -3.737508e-04 2.866550e-05 -2.227250e-05 -8.283957e-05 -1.870048e-04 -3.001388e-04
          -1.779994e-04 -9.499116e-05 -5.719348e-05 -1.069352e-04 -2.215984e-04 -3.384259e-04
          -4.185401e-04 -7.020234e-04 -8.234605e-04 2.772179e-04 -3.651213e-04 -4.450525e-04
          -3.333469e-04 -3.883710e-04 -4.106226e-04 -3.487898e-04 -2.725511e-04 -2.818850e-05
          -4.923538e-05 2.776512e-04 3.909463e-04 2.281291e-04 7.275651e-05 -1.615321e-04
          1.818485e-04 -9.031753e-05 -3.889810e-05 -1.108753e-04 2.911065e-05 -6.881568e-06
          5.173920e-05 2.434815e-04 -1.554975e-04 -6.155305e-04 1.375682e-04 2.469196e-04
          2.130285e-04 2.570021e-04 6.193630e-06 2.305266e-04 5.124928e-05 1.586781e-05
          -3.302954e-06 -1.851222e-04 -4.370802e-05 4.650026e-05 1.929731e-04 3.250857e-04
          -8.592100e-05 -4.009046e-04 -4.665208e-04 -3.939292e-04 -2.152139e-04 -1.420091e-05
          1.305896e-04 5.531160e-04 7.784311e-04 -7.202300e-04 3.039630e-04 3.489703e-04
          1.435958e-04 2.131269e-04 2.418718e-04 1.489133e-04 3.644100e-05 -3.106870e-04
          1.029688e-05 -1.416178e-05 -2.599203e-05 -1.205317e-05 3.402577e-06 2.881146e-05
          3.630546e-05 8.559594e-05 1.033138e-04 1.327984e-04 1.266308e-04 1.389951e-04
          1.934820e-04 2.185836e-04 2.487690e-04 2.693361e-04 1.035176e-04 -1.492245e-05
          -2.219542e-05 -2.352909e-05 4.504554e-05 2.172180e-04 2.450037e-04 2.478103e-04
          2.391929e-04 4.705930e-05 4.202616e-06 -3.136012e-06 -9.862121e-06 -1.781861e-06
          1.442654e-04 2.652073e-04 2.755537e-04 2.702772e-04 2.528754e-04 2.257788e-04
          2.036105e-04 1.679236e-04 1.263624e-04 1.737788e-04 5.485996e-05 8.040568e-05
          1.123834e-04 1.121304e-04 1.121404e-04 1.197665e-04 1.283497e-04 1.486466e-04
          -1.687671e-05 1.638348e-05 2.198577e-05 7.852743e-06 -1.603885e-06 -1.159353e-05
          9.677133e-05 1.511922e-04 2.012776e-04 2.386457e-04 2.609572e-04 2.705979e-04
          3.584544e-04 4.331450e-04 3.895154e-04 3.170218e-04 2.188829e-04 5.438719e-05
          3.535627e-05 4.334771e-05 9.943178e-05 4.274095e-04 4.314710e-04 4.281489e-04
          4.099208e-04 5.936863e-05 2.128931e-05 2.956642e-05 5.113133e-05 9.322439e-05
          2.367440e-04 3.604029e-04 3.619458e-04 3.699275e-04 3.815416e-04 3.812567e-04
          3.762917e-04 4.146355e-04 3.995895e-04 1.447030e-04 1.931697e-04 2.544498e-04
          2.634832e-04 2.793863e-04 2.856976e-04 2.771346e-04 2.655581e-04 2.186011e-04
          -2.626238e-05 9.272336e-06 1.505404e-05 1.133314e-07 -9.539821e-06 -1.892233e-05
          1.037708e-04 1.707184e-04 2.258693e-04 2.664115e-04 2.903689e-04 3.021731e-04
          4.047911e-04 4.902213e-04 4.434483e-04 3.643085e-04 2.512000e-04 6.693082e-05
          4.579244e-05 5.446894e-05 1.183103e-04 4.843264e-04 4.900355e-04 4.865466e-04
          4.662230e-04 7.508546e-05 3.178777e-05 4.066824e-05 6.406201e-05 1.104365e-04
          2.728302e-04 4.124266e-04 4.143758e-04 4.229936e-04 4.348659e-04 4.331919e-04
          4.268107e-04 4.680028e-04 4.501759e-04 1.707874e-04 2.149637e-04 2.810820e-04
          2.921509e-04 3.096716e-04 3.166640e-04 3.076035e-04 2.952627e-04 2.451694e-04
          2.892972e-05 2.917526e-05 2.809636e-05 3.028342e-05 3.327441e-05 3.904012e-05
          3.797521e-05 4.097675e-06 6.302137e-07 4.710208e-06 5.597789e-06 2.119009e-05
          1.132026e-04 1.737689e-04 1.802917e-04 1.729120e-04 7.704554e-05 -2.221081e-05
          -3.168941e-05 -3.068210e-05 8.974946e-06 1.744160e-04 1.889566e-04 1.892883e-04
          1.804782e-04 1.481982e-06 -2.560075e-05 -2.549167e-05 -2.128529e-05 -4.910311e-06
          9.537939e-05 1.811451e-04 1.865555e-04 1.864487e-04 1.826750e-04 1.743619e-04
          1.674629e-04 1.623889e-04 1.379130e-04 6.835007e-05 -6.053336e-06 -7.863808e-06
          -4.472907e-07 2.556452e-06 4.814666e-06 5.806473e-06 6.587464e-06 7.775202e-06
          9.553319e-05 8.040362e-05 7.895907e-05 8.852316e-05 9.493891e-05 1.016953e-04
          -2.171743e-06 -1.578741e-04 -2.125186e-04 -2.428760e-04 -2.552836e-04 -2.376810e-04
          -1.494746e-04 -9.942437e-05 -6.413064e-05 -2.973382e-05 -8.143739e-05 -1.082623e-04
          -1.099535e-04 -1.134915e-04 -1.048265e-04 -9.413223e-05 -7.979744e-05 -7.779403e-05
          -7.797615e-05 -9.131624e-05 -9.907233e-05 -1.022487e-04 -1.075837e-04 -1.099622e-04
          -7.692818e-05 -4.730011e-05 -4.137101e-05 -4.569813e-05 -5.450435e-05 -5.846384e-05
          -5.864308e-05 -8.529743e-05 -1.070817e-04 -6.764808e-05 -1.972912e-04 -2.562026e-04
          -2.622500e-04 -2.688055e-04 -2.693082e-04 -2.639256e-04 -2.569917e-04 -2.279716e-04
          9.356401e-05 1.477249e-04 1.700210e-04 1.456558e-04 1.202099e-04 7.927955e-05
          4.901581e-05 -1.740178e-04 -2.184893e-04 -2.624737e-04 -2.448496e-04 -2.297496e-04
          -9.867357e-05 1.204275e-05 -3.523778e-05 -1.009644e-04 -2.517779e-05 -6.202307e-05
          -7.418685e-05 -6.804091e-05 -9.907967e-05 1.479458e-05 -4.140721e-06 -9.466946e-06
          -1.664505e-05 -1.286206e-04 -1.155393e-04 -9.946870e-05 -7.244427e-05 -4.130507e-05
          -6.174674e-05 -7.019473e-05 -7.632346e-05 -6.533015e-05 -3.752422e-05 -1.706242e-06
          2.639252e-05 8.775449e-05 1.055550e-04 -1.960190e-04 -1.331228e-04 -1.826505e-04
          -2.295818e-04 -2.203686e-04 -2.140797e-04 -2.279782e-04 -2.446474e-04 -2.889376e-04
          9.149056e-05 2.397578e-05 1.354305e-06 3.913379e-05 7.578363e-05 1.314345e-04
          1.168156e-05 -7.192767e-05 -1.208443e-04 -1.240049e-04 -1.560929e-04 -1.153994e-04
          6.658093e-05 1.534169e-04 2.561251e-04 3.489525e-04 4.835165e-05 -1.261508e-04
          -1.345198e-04 -1.432748e-04 -3.726438e-05 1.608667e-04 2.225453e-04 2.307295e-04
          2.218375e-04 -3.873444e-06 -7.188159e-05 -8.977958e-05 -1.136267e-04 -1.158013e-04
          1.181128e-04 3.123671e-04 3.353602e-04 3.192931e-04 2.761458e-04 2.251420e-04
          1.889567e-04 9.037955e-05 2.489640e-06 1.954426e-04 -1.828239e-04 -2.340228e-04
          -1.905386e-04 -2.027161e-04 -2.049635e-04 -1.832248e-04 -1.575203e-04 -7.406611e-05
          4.397814e-05 1.459561e-04 1.803394e-04 1.340015e-04 9.201587e-05 3.086570e-05
          1.216398e-04 -5.833947e-05 -6.405612e-05 -9.119236e-05 -4.825612e-05 -2.351550e-05
          2.059413e-04 4.036583e-04 2.968071e-04 1.425277e-04 1.893712e-04 2.854782e-05
          -1.245210e-06 1.384202e-05 1.120874e-05 4.032705e-04 3.773189e-04 3.672852e-04
          3.443188e-04 -5.974675e-05 -6.793497e-05 -3.921705e-05 1.442423e-05 8.782205e-05
          1.550323e-04 2.244365e-04 2.151395e-04 2.370101e-04 2.846755e-04 3.315983e-04
          3.645584e-04 4.852546e-04 5.056883e-04 -1.043863e-04 3.717731e-05 2.762203e-05
          -2.606096e-05 5.690795e-07 1.406893e-05 -1.214351e-05 -4.496680e-05 -1.452205e-04
          8.102640e-05 2.335502e-05 3.151706e-06 3.523653e-05 6.645239e-05 1.138010e-04
          2.325117e-05 -2.735511e-05 -5.600030e-05 -4.645536e-05 -7.152682e-05 -4.042587e-05
          9.483215e-05 1.566655e-04 2.407721e-04 3.165416e-04 5.036295e-05 -1.077224e-04
          -1.154370e-04 -1.222917e-04 -2.578398e-05 1.608274e-04 2.133406e-04 2.201550e-04
          2.115763e-04 -1.035516e-06 -6.244182e-05 -7.790505e-05 -9.788632e-05 -9.832971e-05
          1.121811e-04 2.867147e-04 3.065091e-04 2.931393e-04 2.565329e-04 2.118617e-04
          1.790273e-04 9.521240e-05 1.925345e-05 1.842277e-04 -1.162750e-04 -1.415990e-04
          -9.994095e-05 -1.093325e-04 -1.113078e-04 -9.310710e-05 -7.169982e-05 -5.531549e-06
          4.767195e-05 -5.058123e-06 -2.063717e-05 7.277887e-06 3.255329e-05 6.969240e-05
          -3.996115e-05 -1.020451e-04 -1.515734e-04 -1.711802e-04 -1.994623e-04 -1.793579e-04
          -1.076264e-04 -8.672762e-05 -9.310356e-06 7.417637e-05 -5.515727e-05 -8.415617e-05
          -8.047519e-05 -8.902091e-05 -5.249877e-05 -7.947300e-05 -4.531628e-05 -3.933411e-05
          -3.664771e-05 -1.562484e-05 -3.809837e-05 -5.207969e-05 -7.471877e-05 -9.418026e-05
          -2.210969e-05 3.579020e-05 4.804593e-05 3.549085e-05 5.533475e-06 -2.419110e-05
          -4.305678e-05 -1.154436e-04 -1.589488e-04 5.894160e-05 -1.843021e-04 -2.421332e-04
          -2.210014e-04 -2.346281e-04 -2.383986e-04 -2.223305e-04 -2.025722e-04 -1.337827e-04
          -1.857820e-05 2.350927e-04 3.275170e-04 2.017834e-04 7.955586e-05 -1.062267e-04
          9.506590e-05 -2.246755e-04 -2.376920e-04 -3.402056e-04 -2.400992e-04 -2.586145e-04
          -1.621931e-04 1.774192e-05 -2.793753e-04 -6.199076e-04 2.173514e-05 1.609271e-04
          1.387120e-04 1.702032e-04 -5.746439e-05 1.479751e-05 -1.272214e-04 -1.544394e-04
          -1.638170e-04 -1.918396e-04 -6.285986e-05 8.048984e-06 1.201363e-04 2.137898e-04
          -1.675939e-04 -4.628135e-04 -5.154575e-04 -4.600434e-04 -3.204877e-04 -1.556482e-04
          -3.265459e-05 2.941107e-04 4.768308e-04 -6.732548e-04 6.278507e-05 2.873513e-05
          -1.518014e-04 -1.029129e-04 -8.090412e-05 -1.522807e-04 -2.379819e-04 -4.903972e-04
          5.364651e-05 -8.161100e-05 -1.230546e-04 -5.473386e-05 7.482219e-06 9.905312e-05
          -1.314305e-04 -1.646983e-04 -2.543766e-04 -2.835969e-04 -3.524510e-04 -3.258321e-04
          -2.868243e-04 -3.275793e-04 -1.455981e-04 6.684670e-05 -1.731477e-04 -1.498414e-04
          -1.304363e-04 -1.520479e-04 -9.016880e-05 -3.133752e-04 -2.427155e-04 -2.278574e-04
          -2.128505e-04 6.668063e-06 -2.734861e-05 -6.382966e-05 -1.264742e-04 -1.924237e-04
          -1.013895e-04 -3.500823e-05 -9.847266e-06 -4.126607e-05 -1.140386e-04 -1.858168e-04
          -2.320667e-04 -4.093946e-04 -4.930804e-04 1.460555e-04 -3.518226e-04 -4.581852e-04
          -4.003588e-04 -4.358187e-04 -4.480954e-04 -4.086557e-04 -3.599499e-04 -1.943961e-04
          9.167335e-06 -1.933840e-05 -1.981881e-05 -4.926841e-06 5.258092e-06 1.829359e-05
          -1.406934e-04 -3.204811e-04 -4.398772e-04 -5.404475e-04 -5.726149e-04 -5.514718e-04
          -4.615282e-04 -4.220273e-04 -3.608118e-04 -2.828127e-04 -1.949007e-04 -5.453454e-05
          -3.953039e-05 -4.958177e-05 -1.110980e-04 -4.041303e-04 -3.982812e-04 -3.945894e-04
          -3.780856e-04 -5.917592e-05 -2.158607e-05 -2.784948e-05 -4.587260e-05 -8.191314e-05
          -2.131615e-04 -3.230720e-04 -3.227787e-04 -3.315099e-04 -3.449541e-04 -3.429651e-04
          -3.313346e-04 -3.690037e-04 -3.637522e-04 -1.836130e-04 -3.951282e-04 -5.543336e-04
          -5.839756e-04 -6.018339e-04 -6.054474e-04 -5.955913e-04 -5.820923e-04 -5.118526e-04
          -2.283708e-05 1.479919e-05 3.982288e-05 2.168089e-05 -1.933619e-07 -3.533075e-05
          -1.502740e-04 -4.219846e-04 -5.623901e-04 -7.100518e-04 -7.200502e-04 -7.010597e-04
          -5.726180e-04 -4.791307e-04 -4.919491e-04 -4.968497e-04 -2.051366e-04 8.326365e-06
          2.059019e-05 1.757232e-05 -1.209716e-04 -4.583003e-04 -4.922675e-04 -4.954328e-04
          -4.779325e-04 -9.596531e-05 -1.376138e-05 -1.256368e-06 8.314875e-06 -9.276325e-06
          -2.790233e-04 -4.987923e-04 -5.138902e-04 -5.086307e-04 -4.855492e-04 -4.380010e-04
          -3.903460e-04 -3.414702e-04 -2.811769e-04 -3.869277e-04 -4.285145e-04 -6.247837e-04
          -7.092974e-04 -7.163539e-04 -7.145220e-04 -7.228734e-04 -7.310421e-04 -7.185161e-04
          1.845395e-05 -2.685644e-04 -3.587493e-04 -2.146561e-04 -8.028451e-05 1.215407e-04
          -3.017855e-04 -2.570874e-04 -4.251196e-04 -4.793989e-04 -6.245341e-04 -5.691704e-04
          -4.934377e-04 -5.859371e-04 -2.060464e-04 2.362130e-04 -2.742522e-04 -2.228273e-04
          -1.812744e-04 -2.265454e-04 -8.914378e-05 -5.550349e-04 -4.049881e-04 -3.730760e-04
          -3.415751e-04 1.176658e-04 4.273802e-05 -3.497171e-05 -1.689350e-04 -3.090966e-04
          -1.129471e-04 2.827104e-05 8.063794e-05 1.410363e-05 -1.420641e-04 -3.012183e-04
          -4.045802e-04 -7.764112e-04 -9.505237e-04 4.067541e-04 -6.503260e-04 -8.611519e-04
          -7.295082e-04 -8.023793e-04 -8.282192e-04 -7.442553e-04 -6.410636e-04 -2.904352e-04
          -1.266390e-04 1.060217e-04 1.876957e-04 7.245714e-05 -3.564824e-05 -1.944716e-04
          6.899278e-05 -9.710236e-05 -8.546180e-05 -1.713660e-04 -7.861489e-05 -9.041982e-05
          2.755630e-05 2.101519e-04 -6.704624e-05 -3.919958e-04 1.625009e-04 2.585873e-04
          2.356398e-04 2.654139e-04 7.705172e-05 2.091122e-04 8.467671e-05 6.018007e-05
          4.812533e-05 -4.649465e-05 5.944532e-05 1.240085e-04 2.272623e-04 3.182755e-04
          6.248399e-06 -2.347899e-04 -2.825694e-04 -2.315882e-04 -1.072630e-04 3.263364e-05
          1.368594e-04 4.401474e-04 6.034520e-04 -4.755178e-04 1.663019e-04 1.485517e-04
          -4.255401e-06 4.441017e-05 6.580073e-05 1.021776e-06 -7.736826e-05 -3.081052e-04
          -6.893765e-05 -8.082896e-05 -8.980606e-05 -8.317731e-05 -7.300393e-05 -5.271650e-05
          2.142605e-05 1.610668e-04 2.026929e-04 2.379415e-04 2.385286e-04 2.437510e-04
          2.665399e-04 2.761947e-04 2.829407e-04 2.794709e-04 1.629162e-04 7.141530e-05
          6.525994e-05 6.604040e-05 1.213184e-04 2.739743e-04 2.914106e-04 2.929034e-04
          2.849840e-04 1.173873e-04 8.356750e-05 7.952368e-05 7.708724e-05 8.645005e-05
          1.978550e-04 2.886367e-04 2.942259e-04 2.922729e-04 2.815030e-04 2.589880e-04
          2.397748e-04 2.255331e-04 2.011556e-04 2.065997e-04 1.532122e-04 1.980213e-04
          2.281939e-04 2.320585e-04 2.328556e-04 2.365786e-04 2.401882e-04 2.441511e-04
          1.252083e-05 -2.804960e-05 -4.868571e-05 -2.785983e-05 -5.264600e-06 3.106983e-05
          7.084230e-05 2.232250e-04 2.890478e-04 3.675209e-04 3.630900e-04 3.621656e-04
          3.297287e-04 2.934381e-04 3.287190e-04 3.589640e-04 1.305144e-04 -1.665682e-05
          -2.379608e-05 -2.492969e-05 7.470516e-05 2.846526e-04 3.188807e-04 3.229898e-04
          3.124944e-04 7.333271e-05 1.341816e-05 1.264583e-06 -1.208844e-05 -6.804090e-06
          1.895597e-04 3.492755e-04 3.629812e-04 3.554450e-04 3.303413e-04 2.894271e-04
          2.533772e-04 1.991907e-04 1.458908e-04 2.744999e-04 1.957941e-04 2.885870e-04
          3.473549e-04 3.472760e-04 3.454133e-04 3.562548e-04 3.682302e-04 3.866096e-04
          1.433099e-05 1.737736e-04 2.236145e-04 1.441307e-04 6.938874e-05 -4.314331e-05
          1.847433e-04 1.425844e-04 2.376252e-04 2.729139e-04 3.545698e-04 3.248694e-04
          2.891657e-04 3.455291e-04 1.351011e-04 -1.116663e-04 1.514496e-04 1.018047e-04
          7.657604e-05 1.021252e-04 3.416094e-05 3.272723e-04 2.461430e-04 2.283966e-04
          2.089718e-04 -8.378289e-05 -4.798213e-05 -4.625088e-06 7.056939e-05 1.517406e-04
          6.430861e-05 4.168000e-06 -2.365446e-05 1.344628e-05 9.996537e-05 1.875318e-04
          2.440523e-04 4.487804e-04 5.402709e-04 -2.246170e-04 3.612866e-04 4.844704e-04
          4.131027e-04 4.539693e-04 4.687314e-04 4.220471e-04 3.646436e-04 1.679035e-04
          8.399238e-05 -2.118851e-05 -6.060571e-05 -8.449578e-06 4.040413e-05 1.119988e-04
          1.548811e-05 1.256997e-04 1.527936e-04 2.250831e-04 1.894915e-04 1.878799e-04
          9.673218e-05 -8.007024e-06 1.098595e-04 2.473622e-04 -4.757728e-05 -1.345117e-04
          -1.277828e-04 -1.393507e-04 -3.100969e-05 -1.351600e-05 4.481759e-05 5.560249e-05
          5.674156e-05 1.329952e-05 -4.875920e-05 -7.821234e-05 -1.233759e-04 -1.575674e-04
          3.156528e-05 1.802155e-04 2.036116e-04 1.814020e-04 1.252853e-04 5.801796e-05
          5.116151e-06 -1.330266e-04 -2.145307e-04 2.622382e-04 1.978481e-05 7.622101e-05
          1.580172e-04 1.388787e-04 1.294662e-04 1.579614e-04 1.921454e-04 2.831638e-04
          2.088066e-05 1.753615e-04 2.283947e-04 1.509327e-04 7.572465e-05 -3.962638e-05
          1.160679e-04 -1.834048e-05 2.215819e-05 8.026347e-06 7.815048e-05 5.188974e-05
          2.752683e-05 8.631351e-05 -1.074300e-04 -3.263856e-04 2.737331e-05 7.726964e-05
          6.116601e-05 8.283742e-05 -3.324051e-05 7.548637e-05 -1.241292e-05 -2.948021e-05
          -3.883697e-05 -1.300494e-04 -6.426180e-05 -2.156543e-05 4.769976e-05 1.103671e-04
          -8.092101e-05 -2.275763e-04 -2.585012e-04 -2.236309e-04 -1.373005e-04 -4.018790e-05
          2.810933e-05 2.271849e-04 3.343588e-04 -3.617425e-04 1.791770e-04 2.302928e-04
          1.368445e-04 1.700151e-04 1.829866e-04 1.381376e-04 8.386432e-05 -8.989024e-05
          3.764754e-05 -1.790135e-05 -3.874712e-05 -1.105905e-05 1.506772e-05 5.374270e-05
          4.127180e-06 6.382619e-05 7.600054e-05 1.114826e-04 9.211004e-05 9.276674e-05
          5.304655e-05 2.905097e-06 6.601685e-05 1.387779e-04 -1.805736e-05 -6.498046e-05
          -6.151264e-05 -6.774117e-05 -1.026722e-05 6.832301e-07 3.217370e-05 3.791523e-05
          3.844144e-05 1.399064e-05 -1.903804e-05 -3.463225e-05 -5.847801e-05 -7.640028e-05
          2.445711e-05 1.038136e-04 1.162298e-04 1.044079e-04 7.442092e-05 3.834793e-05
          1.029628e-05 -6.273905e-05 -1.061892e-04 1.433625e-04 6.118616e-06 3.182307e-05
          7.471219e-05 6.458986e-05 5.976562e-05 7.496023e-05 9.320659e-05 1.427648e-04
          3.616897e-05 1.052723e-04 1.279273e-04 9.279903e-05 5.796102e-05 3.361494e-06
          7.882754e-05 3.364254e-05 7.191797e-05 8.705908e-05 1.225850e-04 1.019579e-04
          4.116899e-05 3.670558e-05 -5.599681e-05 -1.574187e-04 -4.880697e-06 1.248513e-05
          5.192834e-06 1.588682e-05 -3.112757e-05 2.733279e-05 -1.443266e-05 -2.239739e-05
          -2.724747e-05 -8.093600e-05 -5.389583e-05 -3.500788e-05 -3.809762e-06 2.501362e-05
          -5.363988e-05 -1.139028e-04 -1.277645e-04 -1.115364e-04 -7.154285e-05 -2.752094e-05
          1.534518e-06 9.068306e-05 1.391510e-04 -1.623193e-04 1.335369e-04 1.886865e-04
          1.524989e-04 1.683020e-04 1.735803e-04 1.525908e-04 1.272100e-04 3.971000e-05
          6.807442e-05 1.283364e-04 1.513433e-04 1.192259e-04 8.431787e-05 2.613448e-05
          4.080183e-05 -5.963306e-05 -4.671114e-05 -5.044561e-05 -2.234303e-05 -5.171322e-05
          -1.725922e-04 -2.207695e-04 -3.013275e-04 -3.751055e-04 -1.455222e-04 -3.339169e-05
          -3.102217e-05 -2.333201e-05 -1.094268e-04 -2.286169e-04 -2.788514e-04 -2.861320e-04
          -2.813447e-04 -1.443424e-04 -9.162121e-05 -7.471778e-05 -5.105712e-05 -4.170300e-05
          -2.128279e-04 -3.512999e-04 -3.678426e-04 -3.538051e-04 -3.142791e-04 -2.626423e-04
          -2.259162e-04 -1.463782e-04 -8.300366e-05 -2.831554e-04 3.089332e-05 5.872329e-05
          1.116057e-05 1.996213e-05 2.232179e-05 3.035789e-06 -1.946560e-05 -9.340133e-05
          3.854681e-05 3.740814e-07 -1.480915e-05 2.963629e-06 1.908424e-05 4.152728e-05
          1.968982e-05 9.412883e-05 1.261835e-04 1.725770e-04 1.635601e-04 1.507702e-04
          4.827946e-05 -3.362081e-05 1.054505e-06 4.823288e-05 -4.134923e-05 -5.392824e-05
          -4.923078e-05 -5.264082e-05 -1.752435e-05 -3.997195e-05 -2.458031e-05 -2.102296e-05
          -1.919095e-05 -5.809790e-06 -2.437380e-05 -3.534908e-05 -5.247780e-05 -6.791409e-05
          -1.635032e-05 2.230033e-05 2.930724e-05 2.193037e-05 3.615258e-06 -1.882404e-05
          -3.841825e-05 -8.644447e-05 -1.092513e-04 8.878415e-05 6.963057e-05 1.225250e-04
          1.566713e-04 1.503156e-04 1.458299e-04 1.550242e-04 1.661264e-04 1.893284e-04
          -2.982910e-05 -2.566467e-05 -3.231333e-05 -3.428064e-05 -3.192307e-05 -2.473104e-05
          9.843431e-05 2.754577e-04 3.674990e-04 4.491709e-04 4.662583e-04 4.576275e-04
          4.181875e-04 3.983344e-04 3.736835e-04 3.341314e-04 1.975573e-04 5.522810e-05
          4.299376e-05 4.865234e-05 1.224782e-04 3.863497e-04 3.965353e-04 3.958083e-04
          3.814622e-04 9.198156e-05 4.686187e-05 4.664370e-05 5.368522e-05 7.887180e-05
          2.320932e-04 3.587801e-04 3.632910e-04 3.660946e-04 3.648111e-04 3.477384e-04
          3.274138e-04 3.334218e-04 3.109063e-04 2.313508e-04 3.080183e-04 4.272304e-04
          4.653726e-04 4.769058e-04 4.789575e-04 4.768456e-04 4.728970e-04 4.391906e-04
          -5.804298e-05 8.167278e-05 1.220299e-04 5.227256e-05 -9.847858e-06 -9.974152e-05
          1.707932e-04 2.448694e-04 3.603027e-04 4.127391e-04 4.880171e-04 4.634327e-04
          4.424149e-04 4.981972e-04 3.070137e-04 7.625067e-05 2.570341e-04 1.652776e-04
          1.394325e-04 1.633416e-04 1.315387e-04 4.807831e-04 4.157522e-04 4.003647e-04
          3.784851e-04 2.203698e-05 3.677572e-05 7.402715e-05 1.415565e-04 2.207040e-04
          1.985150e-04 1.901404e-04 1.670666e-04 2.000361e-04 2.730022e-04 3.393670e-04
          3.790975e-04 5.611147e-04 6.336025e-04 -6.429547e-05 4.420512e-04 5.815685e-04
          5.347921e-04 5.752067e-04 5.890523e-04 5.483574e-04 4.976482e-04 3.195522e-04
          3.602687e-05 -7.808780e-05 -1.202316e-04 -6.410868e-05 -1.001686e-05 7.084793e-05
          -1.966137e-05 1.264012e-04 1.457928e-04 2.077538e-04 1.658673e-04 1.679622e-04
          9.011856e-05 -1.187375e-05 1.177822e-04 2.686641e-04 -2.687212e-05 -9.621146e-05
          -8.661401e-05 -1.000370e-04 6.858606e-06 -1.400814e-05 4.833755e-05 6.033259e-05
          6.387496e-05 6.201432e-05 1.676157e-06 -3.035203e-05 -8.040087e-05 -1.213600e-04
          5.794575e-05 1.971556e-04 2.210716e-04 1.965483e-04 1.348633e-04 6.149927e-05
          5.124476e-06 -1.420856e-04 -2.248264e-04 2.976984e-04 5.308078e-06 4.390812e-05
          1.289391e-04 1.076397e-04 9.731596e-05 1.287957e-04 1.665383e-04 2.726839e-04
          -1.669913e-05 2.429223e-04 3.324118e-04 2.011570e-04 7.494705e-05 -1.176468e-04
          1.628180e-04 -2.209115e-05 4.514732e-05 1.303985e-05 1.291991e-04 8.295475e-05
          2.897163e-05 1.177637e-04 -2.097456e-04 -5.766338e-04 5.496339e-05 1.771883e-04
          1.538217e-04 1.896467e-04 -2.010789e-05 1.015432e-04 -5.039584e-05 -7.893133e-05
          -9.127541e-05 -1.771296e-04 -5.642723e-05 1.518810e-05 1.299632e-04 2.292770e-04
          -1.307900e-04 -4.104641e-04 -4.648272e-04 -4.063315e-04 -2.609351e-04 -9.674614e-05
          1.937994e-05 3.577045e-04 5.476138e-04 -6.027496e-04 3.100348e-04 3.868205e-04
          2.273785e-04 2.826067e-04 3.037110e-04 2.283927e-04 1.372374e-04 -1.515603e-04
          8.340384e-05 9.282791e-05 9.643284e-05 8.861800e-05 7.712485e-05 5.346892e-05
          3.717609e-05 2.526062e-05 5.914856e-05 9.351152e-05 1.049098e-04 6.982152e-05
          -1.236208e-04 -2.413401e-04 -2.684882e-04 -2.764167e-04 -1.676501e-04 -7.433633e-05
          -6.627322e-05 -6.419812e-05 -1.053331e-04 -2.523307e-04 -2.780296e-04 -2.801626e-04
          -2.728344e-04 -1.176361e-04 -8.925839e-05 -8.684090e-05 -8.607584e-05 -9.695298e-05
          -1.990670e-04 -2.852227e-04 -2.919741e-04 -2.886165e-04 -2.755153e-04 -2.557880e-04
          -2.444763e-04 -2.293737e-04 -1.987683e-04 -1.509611e-04 6.913946e-05 1.313657e-04
          1.241996e-04 1.237619e-04 1.209450e-04 1.151823e-04 1.088636e-04 7.737775e-05
          1.144557e-04 1.396647e-04 1.442161e-04 1.284274e-04 1.099638e-04 7.570933e-05
          1.255984e-04 1.773108e-04 2.731660e-04 3.637484e-04 3.932554e-04 3.446999e-04
          9.120625e-05 -5.419647e-05 -1.145291e-04 -1.629985e-04 -9.858752e-05 -7.960528e-05
          -7.962671e-05 -7.204619e-05 -8.250651e-05 -7.614114e-05 -1.062195e-04 -1.105917e-04
          -1.120480e-04 -1.246409e-04 -1.152851e-04 -1.092079e-04 -9.830434e-05 -8.990518e-05
          -1.240115e-04 -1.527918e-04 -1.596623e-04 -1.512850e-04 -1.297368e-04 -1.082651e-04
          -1.013156e-04 -6.662617e-05 -3.881910e-05 -8.647102e-05 2.636591e-04 4.143413e-04
          4.209860e-04 4.295839e-04 4.286022e-04 4.170024e-04 4.030104e-04 3.311332e-04
          4.676684e-05 5.734513e-05 4.788340e-05 4.304502e-05 4.258901e-05 4.426972e-05
          2.123193e-04 4.353681e-04 5.937387e-04 7.455777e-04 7.791134e-04 7.573427e-04
          6.533659e-04 5.999136e-04 5.534667e-04 4.848168e-04 2.529566e-04 3.227745e-06
          -1.895807e-05 -8.324164e-06 1.158053e-04 5.747782e-04 5.880918e-04 5.860543e-04
          5.608366e-04 5.512956e-05 -2.132126e-05 -2.041538e-05 -6.287902e-06 3.928411e-05
          3.028144e-04 5.220639e-04 5.301612e-04 5.360694e-04 5.382107e-04 5.164660e-04
          4.860404e-04 4.968812e-04 4.579132e-04 3.138891e-04 5.018872e-04 7.233229e-04
          7.845675e-04 8.038711e-04 8.071802e-04 8.016998e-04 7.929885e-04 7.240006e-04
          -5.645630e-05 -7.124735e-05 -8.736455e-05 -7.932361e-05 -6.586651e-05 -3.940845e-05
          1.088669e-04 3.701944e-04 4.857052e-04 5.927850e-04 6.054874e-04 5.995660e-04
          5.614893e-04 5.342716e-04 5.278086e-04 5.037950e-04 2.738233e-04 7.644432e-05
          6.216815e-05 6.670537e-05 1.808380e-04 5.207170e-04 5.469529e-04 5.482549e-04
          5.301770e-04 1.543370e-04 8.501602e-05 7.910276e-05 7.928711e-05 1.045229e-04
          3.354879e-04 5.247529e-04 5.348425e-04 5.339299e-04 5.202392e-04 4.834688e-04
          4.472022e-04 4.288815e-04 3.843634e-04 3.672710e-04 3.852063e-04 5.323631e-04
          5.954164e-04 6.063700e-04 6.077784e-04 6.110243e-04 6.131859e-04 5.933185e-04